
Predictions were generated on 17-Apr-2019 at 09:56:21 using AA 
 AeroAcoustics (v1.00.00, 18-Aug-2016)
     Time           	_Obs1               	Bla1_Node1_Obs1     	Bla1_Node2_Obs1     	Bla1_Node3_Obs1     	Bla1_Node4_Obs1     	Bla1_Node5_Obs1     	Bla1_Node6_Obs1     	Bla1_Node7_Obs1     	Bla1_Node8_Obs1     	Bla1_Node9_Obs1     	Bla1_Node10_Obs1    	Bla1_Node11_Obs1    	Bla1_Node12_Obs1    	Bla1_Node13_Obs1    	Bla1_Node14_Obs1    	Bla1_Node15_Obs1    	Bla1_Node16_Obs1    	Bla1_Node17_Obs1    	Bla1_Node18_Obs1    	Bla1_Node19_Obs1    	Bla2_Node1_Obs1     	Bla2_Node2_Obs1     	Bla2_Node3_Obs1     	Bla2_Node4_Obs1     	Bla2_Node5_Obs1     	Bla2_Node6_Obs1     	Bla2_Node7_Obs1     	Bla2_Node8_Obs1     	Bla2_Node9_Obs1     	Bla2_Node10_Obs1    	Bla2_Node11_Obs1    	Bla2_Node12_Obs1    	Bla2_Node13_Obs1    	Bla2_Node14_Obs1    	Bla2_Node15_Obs1    	Bla2_Node16_Obs1    	Bla2_Node17_Obs1    	Bla2_Node18_Obs1    	Bla2_Node19_Obs1    	Bla3_Node1_Obs1     	Bla3_Node2_Obs1     	Bla3_Node3_Obs1     	Bla3_Node4_Obs1     	Bla3_Node5_Obs1     	Bla3_Node6_Obs1     	Bla3_Node7_Obs1     	Bla3_Node8_Obs1     	Bla3_Node9_Obs1     	Bla3_Node10_Obs1    	Bla3_Node11_Obs1    	Bla3_Node12_Obs1    	Bla3_Node13_Obs1    	Bla3_Node14_Obs1    	Bla3_Node15_Obs1    	Bla3_Node16_Obs1    	Bla3_Node17_Obs1    	Bla3_Node18_Obs1    	Bla3_Node19_Obs1    
      (s)           	SPL                 	SPL                 	SPL                 	SPL                 	SPL                 	SPL                 	SPL                 	SPL                 	SPL                 	SPL                 	SPL                 	SPL                 	SPL                 	SPL                 	SPL                 	SPL                 	SPL                 	SPL                 	SPL                 	SPL                 	SPL                 	SPL                 	SPL                 	SPL                 	SPL                 	SPL                 	SPL                 	SPL                 	SPL                 	SPL                 	SPL                 	SPL                 	SPL                 	SPL                 	SPL                 	SPL                 	SPL                 	SPL                 	SPL                 	SPL                 	SPL                 	SPL                 	SPL                 	SPL                 	SPL                 	SPL                 	SPL                 	SPL                 	SPL                 	SPL                 	SPL                 	SPL                 	SPL                 	SPL                 	SPL                 	SPL                 	SPL                 	SPL                 
    3
   19
    1
         0.1000	  4.338435E+001	  0.000000E+000	  0.000000E+000	  0.000000E+000	  0.000000E+000	 -1.137321E+001	 -5.775477E+000	 -8.044230E-001	  1.137540E+000	  2.934818E+000	  1.147334E+001	  1.480289E+001	  2.211853E+001	  1.675124E+001	  1.569237E+001	  1.516634E+001	  1.340729E+001	  1.273327E+001	  1.108504E+001	  1.181737E+001	  0.000000E+000	  0.000000E+000	  0.000000E+000	  0.000000E+000	 -1.074960E+001	 -7.136959E+000	 -4.384444E-001	  3.390155E+000	  4.119034E+000	  4.999677E+000	  6.061613E+000	  1.187747E+001	  1.698422E+001	  1.896449E+001	  1.961087E+001	  1.067520E+001	  1.090799E+001	  9.932740E+000	  6.321553E+000	  0.000000E+000	  0.000000E+000	  0.000000E+000	  0.000000E+000	 -1.365797E+001	 -7.331680E+000	 -4.907913E+000	  3.623829E-001	  5.484040E+000	  5.487256E+000	  6.619764E+000	  7.403719E+000	  8.212622E+000	  9.234489E+000	  9.992162E+000	  1.024112E+001	  1.044974E+001	  9.803466E+000	  6.800611E+000
         0.2000	  4.297636E+001	  0.000000E+000	  0.000000E+000	  0.000000E+000	  0.000000E+000	 -1.116012E+001	 -5.291099E+000	 -1.133094E+000	 -1.746059E+000	  7.482918E+000	  1.107020E+001	  1.074908E+001	  1.723617E+001	  1.751693E+001	  1.730808E+001	  1.923598E+001	  1.082598E+001	  1.107656E+001	  1.013938E+001	  6.574224E+000	  0.000000E+000	  0.000000E+000	  0.000000E+000	  0.000000E+000	 -1.084686E+001	 -7.643178E+000	  2.264421E-001	  3.292017E+000	  3.481880E+000	  3.971073E+000	  5.076446E+000	  1.102434E+001	  1.668274E+001	  1.935821E+001	  1.978063E+001	  1.091936E+001	  1.115343E+001	  1.021277E+001	  5.800299E+000	  0.000000E+000	  0.000000E+000	  0.000000E+000	  0.000000E+000	 -1.365710E+001	 -7.388278E+000	 -4.885375E+000	  2.868146E-001	  5.152590E+000	  4.783873E+000	  5.659694E+000	  6.124815E+000	  6.997062E+000	  8.266710E+000	  9.357100E+000	  9.731118E+000	  1.010618E+001	  9.351931E+000	  5.127193E+000
         0.3000	  4.292280E+001	  0.000000E+000	  0.000000E+000	  0.000000E+000	  0.000000E+000	 -1.116936E+001	 -5.172754E+000	 -1.773497E+000	  8.992982E-001	  7.553773E+000	  1.003399E+001	  9.187197E+000	  1.524635E+001	  1.776558E+001	  1.802058E+001	  1.949783E+001	  1.104655E+001	  1.130033E+001	  1.033661E+001	  6.393349E+000	  0.000000E+000	  0.000000E+000	  0.000000E+000	  0.000000E+000	 -1.100618E+001	 -8.079928E+000	  2.024502E-001	  3.153975E+000	  3.343014E+000	  3.841782E+000	  4.870243E+000	  1.086666E+001	  1.655512E+001	  1.927335E+001	  1.967517E+001	  1.087889E+001	  1.112318E+001	  1.020367E+001	  5.849769E+000	  0.000000E+000	  0.000000E+000	  0.000000E+000	  0.000000E+000	 -1.363394E+001	 -7.383887E+000	 -4.110650E+000	 -2.791894E-001	  5.505391E+000	  5.546091E+000	  6.375741E+000	  6.851532E+000	  7.506927E+000	  8.427948E+000	  9.461038E+000	  9.775078E+000	  1.013540E+001	  9.440115E+000	  5.108290E+000
         0.4000	  4.186910E+001	  0.000000E+000	  0.000000E+000	  0.000000E+000	  0.000000E+000	 -1.117216E+001	 -5.007776E+000	 -1.955618E+000	  9.949156E-001	  7.754137E+000	  1.063748E+001	  1.032262E+001	  1.675781E+001	  1.800655E+001	  1.757076E+001	  1.931832E+001	  1.110456E+001	  1.133290E+001	  1.046704E+001	  7.040188E+000	  0.000000E+000	  0.000000E+000	  0.000000E+000	  0.000000E+000	 -1.105420E+001	 -8.429286E+000	  5.080701E-003	  3.002678E+000	  3.355003E+000	  3.952552E+000	  5.017398E+000	  6.133679E+000	  1.174661E+001	  1.718717E+001	  1.041089E+001	  1.054464E+001	  1.075476E+001	  9.921038E+000	  5.568727E+000	  0.000000E+000	  0.000000E+000	  0.000000E+000	  0.000000E+000	 -1.378798E+001	 -7.268310E+000	 -3.671927E+000	 -7.489449E-001	  5.945419E+000	  8.413612E+000	  8.106331E+000	  8.715081E+000	  9.038380E+000	  9.536411E+000	  1.012044E+001	  1.037433E+001	  1.074907E+001	  1.001675E+001	  5.835478E+000
         0.5000	  4.201026E+001	  0.000000E+000	  0.000000E+000	  0.000000E+000	  0.000000E+000	 -1.129466E+001	 -4.897346E+000	 -1.835873E+000	 -1.614661E-001	  7.654210E+000	  1.154863E+001	  1.375908E+001	  1.913622E+001	  1.828620E+001	  1.682429E+001	  1.902885E+001	  1.191543E+001	  1.169226E+001	  1.069040E+001	  8.243572E+000	  0.000000E+000	  0.000000E+000	  0.000000E+000	  0.000000E+000	 -1.125430E+001	 -8.887487E+000	 -4.360413E-002	  2.803824E+000	  3.362125E+000	  4.265558E+000	  5.325443E+000	  6.424459E+000	  7.684116E+000	  9.040439E+000	  9.993762E+000	  1.017434E+001	  1.038355E+001	  9.440731E+000	  5.108094E+000	  0.000000E+000	  0.000000E+000	  0.000000E+000	  0.000000E+000	 -1.369603E+001	 -7.153656E+000	 -3.585702E+000	 -4.932007E-001	  6.244509E+000	  9.337756E+000	  9.601552E+000	  1.075653E+001	  1.127848E+001	  1.157701E+001	  1.177759E+001	  1.161696E+001	  1.166151E+001	  1.085842E+001	  8.340735E+000
         0.6000	  4.455196E+001	  0.000000E+000	  0.000000E+000	  0.000000E+000	  0.000000E+000	 -1.098847E+001	 -4.700105E+000	 -1.949325E+000	 -9.426327E-001	  7.498908E+000	  1.216478E+001	  1.484620E+001	  2.205840E+001	  1.834955E+001	  1.627758E+001	  1.877171E+001	  1.446969E+001	  1.359395E+001	  1.186350E+001	  1.204950E+001	  0.000000E+000	  0.000000E+000	  0.000000E+000	  0.000000E+000	 -1.176486E+001	 -9.706618E+000	 -2.152760E-001	  2.624265E+000	  3.284262E+000	  4.372709E+000	  5.876076E+000	  7.095844E+000	  8.494522E+000	  9.750266E+000	  1.048541E+001	  1.049608E+001	  1.065774E+001	  9.732502E+000	  7.736146E+000	  0.000000E+000	  0.000000E+000	  0.000000E+000	  0.000000E+000	 -1.343482E+001	 -6.985676E+000	 -3.562683E+000	 -2.505546E-001	  6.517445E+000	  9.919550E+000	  1.062226E+001	  1.250485E+001	  1.902961E+001	  2.270416E+001	  1.476829E+001	  1.424934E+001	  1.419007E+001	  1.286520E+001	  1.375291E+001
         0.7000	  4.677313E+001	  0.000000E+000	  0.000000E+000	  0.000000E+000	  0.000000E+000	 -1.103754E+001	 -4.697911E+000	 -2.795004E+000	  7.058575E-001	  7.632069E+000	  1.199233E+001	  1.495648E+001	  2.214310E+001	  2.399969E+001	  1.666928E+001	  1.887254E+001	  1.886504E+001	  1.830557E+001	  1.543008E+001	  1.864193E+001	  0.000000E+000	  0.000000E+000	  0.000000E+000	  0.000000E+000	 -1.215672E+001	 -8.694649E+000	 -1.820060E-001	  2.560093E+000	  3.377138E+000	  4.636948E+000	  6.588046E+000	  8.300637E+000	  1.000128E+001	  1.147556E+001	  1.248711E+001	  1.268437E+001	  1.285234E+001	  1.152551E+001	  1.248663E+001	  0.000000E+000	  0.000000E+000	  0.000000E+000	  0.000000E+000	 -1.340893E+001	 -6.880448E+000	 -3.445244E+000	 -3.288137E-001	  6.791622E+000	  1.043029E+001	  1.293620E+001	  1.353419E+001	  2.030059E+001	  2.395845E+001	  2.006734E+001	  1.758721E+001	  1.714922E+001	  1.475719E+001	  1.669034E+001
         0.8000	  4.835329E+001	  0.000000E+000	  0.000000E+000	  0.000000E+000	  0.000000E+000	 -1.108099E+001	 -4.944655E+000	 -4.181855E+000	  1.923591E+000	  7.787121E+000	  1.162136E+001	  1.450835E+001	  2.165851E+001	  2.472784E+001	  2.377985E+001	  2.095248E+001	  2.297197E+001	  2.107644E+001	  1.919258E+001	  2.033117E+001	  0.000000E+000	  0.000000E+000	  0.000000E+000	  0.000000E+000	 -1.230583E+001	 -6.849872E+000	 -5.304331E-002	  2.508599E+000	  3.402570E+000	  4.884791E+000	  7.079213E+000	  9.222268E+000	  1.136825E+001	  1.321493E+001	  1.455674E+001	  1.487244E+001	  1.482480E+001	  1.288727E+001	  1.428010E+001	  0.000000E+000	  0.000000E+000	  0.000000E+000	  0.000000E+000	 -1.337219E+001	 -6.844519E+000	 -3.257213E+000	 -9.181005E-001	  6.686915E+000	  1.064979E+001	  1.342833E+001	  1.584597E+001	  2.099899E+001	  2.434698E+001	  1.996304E+001	  1.894551E+001	  1.875101E+001	  1.631115E+001	  1.971016E+001
         0.9000	  4.839938E+001	  0.000000E+000	  0.000000E+000	  0.000000E+000	  0.000000E+000	 -1.100462E+001	 -5.374198E+000	 -5.071775E+000	  2.373434E+000	  7.822355E+000	  1.144121E+001	  1.429616E+001	  2.140550E+001	  2.495305E+001	  2.441018E+001	  2.236734E+001	  2.365622E+001	  2.404488E+001	  2.259045E+001	  2.030175E+001	  0.000000E+000	  0.000000E+000	  0.000000E+000	  0.000000E+000	 -1.318718E+001	 -6.973202E+000	 -2.724094E-001	  1.068948E+000	  3.078940E+000	  4.632489E+000	  6.811444E+000	  8.938222E+000	  1.096393E+001	  1.299375E+001	  1.458503E+001	  1.502222E+001	  1.515133E+001	  1.334958E+001	  1.466995E+001	  0.000000E+000	  0.000000E+000	  0.000000E+000	  0.000000E+000	 -1.333856E+001	 -6.917304E+000	 -3.069280E+000	 -2.297869E+000	  6.329403E+000	  1.075954E+001	  1.366179E+001	  1.622611E+001	  1.827286E+001	  1.998943E+001	  1.928856E+001	  1.946369E+001	  1.943667E+001	  1.733925E+001	  1.985098E+001
         1.0000	  4.848175E+001	  0.000000E+000	  0.000000E+000	  0.000000E+000	  0.000000E+000	 -1.082569E+001	 -5.708490E+000	 -7.172011E+000	  2.595844E+000	  7.780254E+000	  1.146491E+001	  1.426823E+001	  2.136888E+001	  2.498780E+001	  2.442513E+001	  2.230518E+001	  2.350247E+001	  2.380938E+001	  2.019224E+001	  2.037275E+001	  0.000000E+000	  0.000000E+000	  0.000000E+000	  0.000000E+000	 -1.389932E+001	 -9.708868E+000	 -7.156676E-001	  7.401542E-001	  2.710162E+000	  4.223933E+000	  6.210516E+000	  8.132573E+000	  1.014401E+001	  1.215127E+001	  1.371397E+001	  1.451334E+001	  1.501923E+001	  1.352157E+001	  1.484991E+001	  0.000000E+000	  0.000000E+000	  0.000000E+000	  0.000000E+000	 -1.328453E+001	 -6.967062E+000	 -2.866953E+000	 -3.452066E+000	  5.784727E+000	  1.068012E+001	  1.374945E+001	  1.647927E+001	  1.859849E+001	  2.039033E+001	  2.166856E+001	  2.194112E+001	  1.990354E+001	  1.800867E+001	  1.938543E+001
         1.1000	  4.837148E+001	  0.000000E+000	  0.000000E+000	  0.000000E+000	  0.000000E+000	 -1.076536E+001	 -5.989648E+000	 -5.337535E+000	  2.704157E+000	  7.797348E+000	  1.146418E+001	  1.426528E+001	  2.135490E+001	  2.491423E+001	  2.421911E+001	  2.182106E+001	  2.309412E+001	  2.124129E+001	  1.935110E+001	  2.036471E+001	  0.000000E+000	  0.000000E+000	  0.000000E+000	  0.000000E+000	 -1.415631E+001	 -1.079863E+001	 -1.315558E+000	  1.862137E+000	  2.762815E+000	  4.190230E+000	  6.067321E+000	  7.869856E+000	  9.835004E+000	  1.585993E+001	  1.338196E+001	  1.414216E+001	  1.482772E+001	  1.358121E+001	  1.488965E+001	  0.000000E+000	  0.000000E+000	  0.000000E+000	  0.000000E+000	 -1.316339E+001	 -6.953940E+000	 -2.564563E+000	 -2.148775E+000	  4.715082E+000	  1.041845E+001	  1.381033E+001	  1.665610E+001	  1.877881E+001	  2.056807E+001	  2.188065E+001	  2.219943E+001	  2.227842E+001	  1.830804E+001	  1.888828E+001
         1.2000	  4.802299E+001	  0.000000E+000	  0.000000E+000	  0.000000E+000	  0.000000E+000	 -1.071682E+001	 -6.067480E+000	 -4.352820E+000	  2.803494E+000	  7.762332E+000	  1.130115E+001	  1.401084E+001	  2.108968E+001	  2.475169E+001	  2.402283E+001	  2.158746E+001	  2.061402E+001	  2.061344E+001	  1.877953E+001	  2.016600E+001	  0.000000E+000	  0.000000E+000	  0.000000E+000	  0.000000E+000	 -1.454057E+001	 -9.606740E+000	 -1.893488E+000	  1.983415E+000	  3.014208E+000	  4.328924E+000	  6.080652E+000	  7.689882E+000	  9.446715E+000	  1.120146E+001	  1.251427E+001	  1.301456E+001	  1.347375E+001	  1.234635E+001	  1.323092E+001	  0.000000E+000	  0.000000E+000	  0.000000E+000	  0.000000E+000	 -1.304289E+001	 -6.842077E+000	 -2.260174E+000	 -8.436007E-001	  3.219210E+000	  9.882221E+000	  1.379082E+001	  1.666236E+001	  1.893354E+001	  2.089152E+001	  2.202625E+001	  2.226417E+001	  2.226802E+001	  1.822591E+001	  1.878483E+001
         1.3000	  4.732694E+001	  0.000000E+000	  0.000000E+000	  0.000000E+000	  0.000000E+000	 -1.068412E+001	 -6.100692E+000	 -3.834737E+000	  2.886232E+000	  7.714799E+000	  1.089523E+001	  1.357548E+001	  2.063501E+001	  2.447738E+001	  1.833859E+001	  1.937614E+001	  2.007435E+001	  2.015336E+001	  1.846626E+001	  1.997882E+001	  0.000000E+000	  0.000000E+000	  0.000000E+000	  0.000000E+000	 -1.445706E+001	 -8.527943E+000	 -3.221516E+000	  1.877109E+000	  3.234007E+000	  4.466509E+000	  6.130424E+000	  7.584427E+000	  9.074826E+000	  1.052372E+001	  1.153507E+001	  1.178260E+001	  1.208591E+001	  1.109329E+001	  1.067547E+001	  0.000000E+000	  0.000000E+000	  0.000000E+000	  0.000000E+000	 -1.313658E+001	 -6.661621E+000	 -1.958120E+000	 -1.206574E-001	  1.703254E+000	  9.407333E+000	  1.411419E+001	  1.704336E+001	  1.928281E+001	  2.123592E+001	  2.229938E+001	  2.248672E+001	  2.242822E+001	  1.818896E+001	  1.924783E+001
         1.4000	  4.803490E+001	  0.000000E+000	  0.000000E+000	  0.000000E+000	  0.000000E+000	 -1.064070E+001	 -6.063845E+000	 -3.730707E+000	  2.981344E+000	  7.616627E+000	  1.065027E+001	  1.321814E+001	  1.870188E+001	  2.164339E+001	  1.828320E+001	  1.931067E+001	  1.951879E+001	  1.965876E+001	  1.790401E+001	  1.978798E+001	  0.000000E+000	  0.000000E+000	  0.000000E+000	  0.000000E+000	 -1.467301E+001	 -7.641299E+000	 -5.148175E+000	  1.761363E+000	  3.485774E+000	  4.646164E+000	  6.302788E+000	  7.566425E+000	  8.972001E+000	  1.022562E+001	  1.112060E+001	  1.121915E+001	  1.143303E+001	  1.049283E+001	  9.276892E+000	  0.000000E+000	  0.000000E+000	  0.000000E+000	  0.000000E+000	 -1.268573E+001	 -6.611241E+000	 -1.663431E+000	  3.542417E-001	  2.457794E-001	  9.643792E+000	  1.448958E+001	  1.755011E+001	  2.465528E+001	  2.616724E+001	  2.263984E+001	  2.273956E+001	  2.044495E+001	  1.826149E+001	  1.991652E+001
         1.5000	  4.690204E+001	  0.000000E+000	  0.000000E+000	  0.000000E+000	  0.000000E+000	 -1.057293E+001	 -5.923132E+000	 -4.189539E+000	  2.923192E+000	  7.597096E+000	  1.058267E+001	  1.305884E+001	  1.852794E+001	  2.138638E+001	  1.809212E+001	  1.863181E+001	  1.889699E+001	  1.893762E+001	  1.695750E+001	  1.923588E+001	  0.000000E+000	  0.000000E+000	  0.000000E+000	  0.000000E+000	 -1.425732E+001	 -7.169360E+000	 -8.256545E+000	  1.372890E+000	  4.828816E+000	  4.840026E+000	  6.440459E+000	  7.753430E+000	  9.043807E+000	  1.030749E+001	  1.111816E+001	  1.119386E+001	  1.141064E+001	  1.040307E+001	  9.463590E+000	  0.000000E+000	  0.000000E+000	  0.000000E+000	  0.000000E+000	 -1.239704E+001	 -6.613464E+000	 -1.390308E+000	  7.984187E-001	  1.891262E+000	  9.921245E+000	  1.491071E+001	  2.260238E+001	  2.333856E+001	  2.080419E+001	  1.500630E+001	  2.078287E+001	  2.042128E+001	  1.819596E+001	  2.052767E+001
         1.6000	  4.682386E+001	  0.000000E+000	  0.000000E+000	  0.000000E+000	  0.000000E+000	 -1.057250E+001	 -5.321416E+000	 -5.502860E+000	  2.800789E+000	  7.606673E+000	  1.056238E+001	  1.296306E+001	  1.841691E+001	  2.114298E+001	  1.793397E+001	  1.813359E+001	  1.825678E+001	  1.812990E+001	  1.581612E+001	  1.850875E+001	  0.000000E+000	  0.000000E+000	  0.000000E+000	  0.000000E+000	 -1.405615E+001	 -7.102008E+000	 -7.110142E+000	  1.001225E+000	  5.054574E+000	  5.212712E+000	  6.915486E+000	  8.264487E+000	  9.520118E+000	  1.065824E+001	  1.148381E+001	  1.165465E+001	  1.188644E+001	  1.080934E+001	  1.050960E+001	  0.000000E+000	  0.000000E+000	  0.000000E+000	  0.000000E+000	 -1.210917E+001	 -6.157108E+000	 -1.172948E+000	  1.273471E+000	  2.460909E+000	  9.699389E+000	  1.505332E+001	  2.292475E+001	  2.351042E+001	  2.072417E+001	  1.458758E+001	  2.071537E+001	  2.038469E+001	  1.810232E+001	  2.082057E+001
         1.7000	  4.665979E+001	  0.000000E+000	  0.000000E+000	  0.000000E+000	  0.000000E+000	 -1.051326E+001	 -5.221430E+000	 -5.702752E+000	  2.821931E+000	  7.561671E+000	  1.044843E+001	  1.120128E+001	  1.822077E+001	  2.104396E+001	  1.793779E+001	  1.775647E+001	  1.778303E+001	  1.748526E+001	  1.506771E+001	  1.812742E+001	  0.000000E+000	  0.000000E+000	  0.000000E+000	  0.000000E+000	 -1.420009E+001	 -7.308718E+000	 -6.127081E+000	  6.927167E-001	  5.400362E+000	  5.868739E+000	  7.517892E+000	  9.075258E+000	  1.025162E+001	  1.135369E+001	  1.208527E+001	  1.216543E+001	  1.234514E+001	  1.126217E+001	  1.139512E+001	  0.000000E+000	  0.000000E+000	  0.000000E+000	  0.000000E+000	 -1.184542E+001	 -5.946577E+000	 -1.083315E+000	  1.738977E+000	  3.225380E+000	  8.198281E+000	  1.460279E+001	  2.282567E+001	  2.337816E+001	  2.035996E+001	  1.372724E+001	  2.081658E+001	  2.038734E+001	  1.804146E+001	  2.071662E+001
         1.8000	  4.665376E+001	  0.000000E+000	  0.000000E+000	  0.000000E+000	  0.000000E+000	 -1.047152E+001	 -5.176549E+000	 -5.296423E+000	  2.963369E+000	  7.471147E+000	  1.016521E+001	  1.091066E+001	  1.789753E+001	  2.101392E+001	  1.805463E+001	  1.742224E+001	  1.745821E+001	  1.725730E+001	  1.483573E+001	  1.807582E+001	  0.000000E+000	  0.000000E+000	  0.000000E+000	  0.000000E+000	 -1.382271E+001	 -7.356382E+000	 -4.877597E+000	  2.923251E-001	  5.830489E+000	  6.619436E+000	  8.308992E+000	  9.893532E+000	  1.110984E+001	  1.207092E+001	  1.275389E+001	  1.277959E+001	  1.286777E+001	  1.169318E+001	  1.197164E+001	  0.000000E+000	  0.000000E+000	  0.000000E+000	  0.000000E+000	 -1.156628E+001	 -5.764414E+000	 -1.024223E+000	  2.217159E+000	  3.815567E+000	  3.802566E+000	  1.327834E+001	  2.215007E+001	  2.293290E+001	  2.001493E+001	  1.305021E+001	  2.320707E+001	  2.069602E+001	  1.831872E+001	  2.029734E+001
         1.9000	  4.711136E+001	  0.000000E+000	  0.000000E+000	  0.000000E+000	  0.000000E+000	 -1.042983E+001	 -5.153455E+000	 -4.905405E+000	  3.063113E+000	  7.364688E+000	  9.842410E+000	  1.053807E+001	  1.749348E+001	  2.102570E+001	  1.821523E+001	  1.712888E+001	  1.723973E+001	  1.706079E+001	  1.463730E+001	  1.809051E+001	  0.000000E+000	  0.000000E+000	  0.000000E+000	  0.000000E+000	 -1.363610E+001	 -7.299878E+000	 -3.651126E+000	 -1.222892E-001	  6.210236E+000	  8.766374E+000	  9.111425E+000	  1.059222E+001	  1.185373E+001	  1.264707E+001	  1.326729E+001	  1.328206E+001	  1.334145E+001	  1.211159E+001	  1.245738E+001	  0.000000E+000	  0.000000E+000	  0.000000E+000	  0.000000E+000	 -1.129464E+001	 -5.734938E+000	 -9.662823E-001	  2.473329E+000	  4.299739E+000	  6.149498E+000	  1.075554E+001	  2.059685E+001	  2.200244E+001	  1.939134E+001	  2.360863E+001	  2.372520E+001	  2.340249E+001	  1.905223E+001	  1.981962E+001
         2.0000	  4.712755E+001	  0.000000E+000	  0.000000E+000	  0.000000E+000	  0.000000E+000	 -1.041309E+001	 -5.133461E+000	 -4.917804E+000	  3.012805E+000	  7.270987E+000	  9.635117E+000	  1.026074E+001	  1.719014E+001	  2.095038E+001	  1.825331E+001	  1.684716E+001	  1.695898E+001	  1.672004E+001	  1.426774E+001	  1.795821E+001	  0.000000E+000	  0.000000E+000	  0.000000E+000	  0.000000E+000	 -1.349186E+001	 -7.270214E+000	 -3.066756E+000	 -9.052009E-001	  6.343426E+000	  9.347840E+000	  9.693164E+000	  1.114200E+001	  1.241135E+001	  1.817253E+001	  1.373932E+001	  1.377172E+001	  1.386745E+001	  1.264175E+001	  1.303145E+001	  0.000000E+000	  0.000000E+000	  0.000000E+000	  0.000000E+000	 -1.106107E+001	 -5.800992E+000	 -9.461794E-001	  2.608394E+000	  4.746359E+000	  6.571914E+000	  4.163444E+000	  1.722288E+001	  1.983544E+001	  1.925267E+001	  2.357868E+001	  2.411602E+001	  2.409476E+001	  2.208162E+001	  1.903755E+001
         2.1000	  4.676872E+001	  0.000000E+000	  0.000000E+000	  0.000000E+000	  0.000000E+000	 -1.041360E+001	 -5.134594E+000	 -5.088538E+000	  2.940622E+000	  7.173605E+000	  7.985876E+000	  1.003718E+001	  1.695489E+001	  2.082783E+001	  1.823405E+001	  1.645490E+001	  1.654643E+001	  1.632154E+001	  1.388784E+001	  1.555894E+001	  0.000000E+000	  0.000000E+000	  0.000000E+000	  0.000000E+000	 -1.378946E+001	 -7.406613E+000	 -2.527706E+000	 -3.048643E+000	  6.399542E+000	  9.766348E+000	  1.026450E+001	  1.196818E+001	  1.300073E+001	  1.393575E+001	  1.416590E+001	  1.399389E+001	  1.404912E+001	  1.276305E+001	  1.344586E+001	  0.000000E+000	  0.000000E+000	  0.000000E+000	  0.000000E+000	 -1.084905E+001	 -5.559181E+000	 -8.098327E-001	  2.784411E+000	  5.061445E+000	  6.867040E+000	  8.423776E+000	  1.348905E+001	  1.710201E+001	  1.732649E+001	  2.320539E+001	  2.414845E+001	  2.463599E+001	  2.315792E+001	  1.826239E+001
         2.2000	  4.695010E+001	  0.000000E+000	  0.000000E+000	  0.000000E+000	  0.000000E+000	 -1.043220E+001	 -5.184763E+000	 -5.030722E+000	  2.857131E+000	  7.029823E+000	  7.726041E+000	  9.779092E+000	  1.170940E+001	  1.812830E+001	  2.306241E+001	  1.607170E+001	  1.618342E+001	  1.597275E+001	  1.362687E+001	  1.523688E+001	  0.000000E+000	  0.000000E+000	  0.000000E+000	  0.000000E+000	 -1.369198E+001	 -7.356422E+000	 -2.303737E+000	 -2.208418E+000	  5.869918E+000	  1.010938E+001	  1.245944E+001	  1.270529E+001	  1.404285E+001	  1.485229E+001	  1.516422E+001	  1.454651E+001	  1.417249E+001	  1.264493E+001	  1.365872E+001	  0.000000E+000	  0.000000E+000	  0.000000E+000	  0.000000E+000	 -1.062564E+001	 -5.380056E+000	 -6.203493E-001	  2.969839E+000	  5.276902E+000	  7.195053E+000	  8.818619E+000	  1.146348E+001	  1.578733E+001	  1.616910E+001	  2.312799E+001	  2.415443E+001	  2.501465E+001	  2.386286E+001	  1.760083E+001
         2.3000	  4.601380E+001	  0.000000E+000	  0.000000E+000	  0.000000E+000	  0.000000E+000	 -1.048941E+001	 -5.313052E+000	 -4.623044E+000	  2.811816E+000	  6.827370E+000	  7.408473E+000	  9.347591E+000	  1.121503E+001	  1.761533E+001	  1.455848E+001	  1.566379E+001	  1.579738E+001	  1.556378E+001	  1.341226E+001	  1.492710E+001	  0.000000E+000	  0.000000E+000	  0.000000E+000	  0.000000E+000	 -1.365682E+001	 -7.652058E+000	 -2.392627E+000	 -2.789599E-001	  3.601003E+000	  1.044435E+001	  1.306272E+001	  1.510152E+001	  1.492588E+001	  1.603301E+001	  1.643479E+001	  1.578475E+001	  1.504236E+001	  1.282068E+001	  1.403691E+001	  0.000000E+000	  0.000000E+000	  0.000000E+000	  0.000000E+000	 -1.044741E+001	 -5.233711E+000	 -4.583794E-001	  3.153567E+000	  5.441628E+000	  7.307212E+000	  1.010469E+001	  8.718593E+000	  9.107457E+000	  6.955334E+000	  6.974419E+000	  2.461148E+001	  2.542982E+001	  2.459600E+001	  1.720274E+001
         2.4000	  4.558751E+001	  0.000000E+000	  0.000000E+000	  0.000000E+000	  0.000000E+000	 -1.052067E+001	 -5.578671E+000	 -3.906827E+000	  2.883806E+000	  6.611946E+000	  7.037035E+000	  8.852638E+000	  1.072978E+001	  1.245658E+001	  1.397641E+001	  1.504145E+001	  1.519169E+001	  1.515134E+001	  1.317750E+001	  1.438444E+001	  0.000000E+000	  0.000000E+000	  0.000000E+000	  0.000000E+000	 -1.364787E+001	 -7.762684E+000	 -2.553892E+000	  2.554397E-001	  9.383265E-001	  9.140435E+000	  1.344278E+001	  1.599653E+001	  1.756933E+001	  1.689832E+001	  1.751294E+001	  1.711907E+001	  1.639575E+001	  1.350238E+001	  1.673537E+001	  0.000000E+000	  0.000000E+000	  0.000000E+000	  0.000000E+000	 -1.031975E+001	 -4.873956E+000	 -2.335367E-001	  3.249358E+000	  5.458664E+000	  7.417716E+000	  1.043661E+001	  1.091133E+001	  1.040478E+001	  7.670819E+000	  7.460401E+000	  7.930726E+000	  2.600301E+001	  2.513574E+001	  1.742460E+001
         2.5000	  4.617213E+001	  0.000000E+000	  0.000000E+000	  0.000000E+000	  0.000000E+000	 -1.046693E+001	 -6.175031E+000	 -2.963218E+000	  2.910979E+000	  6.415607E+000	  6.597081E+000	  8.425922E+000	  1.025018E+001	  1.191224E+001	  1.334145E+001	  1.433383E+001	  1.444500E+001	  1.444134E+001	  1.274115E+001	  1.375956E+001	  0.000000E+000	  0.000000E+000	  0.000000E+000	  0.000000E+000	 -1.356236E+001	 -7.556251E+000	 -2.562341E+000	  7.535658E-001	  1.964387E+000	  6.267880E+000	  1.299147E+001	  1.627394E+001	  1.836808E+001	  1.976826E+001	  2.035195E+001	  1.822034E+001	  1.783067E+001	  1.520671E+001	  1.768257E+001	  0.000000E+000	  0.000000E+000	  0.000000E+000	  0.000000E+000	 -1.021353E+001	 -4.620192E+000	 -6.739765E-002	  3.297015E+000	  5.355218E+000	  7.336028E+000	  7.992429E+000	  1.278483E+001	  1.178367E+001	  8.512668E+000	  7.749130E+000	  8.101391E+000	  2.635376E+001	  2.546737E+001	  1.791445E+001
         2.6000	  4.658851E+001	  0.000000E+000	  0.000000E+000	  0.000000E+000	  0.000000E+000	 -1.070978E+001	 -6.901260E+000	 -1.833427E+000	  3.090246E+000	  6.178937E+000	  6.213868E+000	  8.066919E+000	  9.730509E+000	  1.119601E+001	  1.253383E+001	  1.341653E+001	  1.353274E+001	  1.363556E+001	  1.223812E+001	  1.304171E+001	  0.000000E+000	  0.000000E+000	  0.000000E+000	  0.000000E+000	 -1.344984E+001	 -7.437587E+000	 -2.513197E+000	  1.017111E+000	  2.587806E+000	  3.710505E+000	  1.247186E+001	  1.642470E+001	  1.886047E+001	  2.065356E+001	  2.156257E+001	  2.146392E+001	  1.912348E+001	  1.687564E+001	  1.858031E+001	  0.000000E+000	  0.000000E+000	  0.000000E+000	  0.000000E+000	 -1.018260E+001	 -4.576624E+000	 -3.557834E-002	  3.276653E+000	  5.108887E+000	  7.086798E+000	  1.105470E+001	  1.408811E+001	  1.283646E+001	  9.158522E+000	  7.746278E+000	  7.932154E+000	  2.628407E+001	  2.538458E+001	  1.805033E+001
         2.7000	  4.674149E+001	  0.000000E+000	  0.000000E+000	  0.000000E+000	  0.000000E+000	 -1.100460E+001	 -8.046886E+000	 -6.532761E-001	  3.138083E+000	  4.555633E+000	  5.699609E+000	  7.507286E+000	  9.173187E+000	  1.061755E+001	  1.188835E+001	  1.279928E+001	  1.297310E+001	  1.315610E+001	  1.187975E+001	  1.248055E+001	  0.000000E+000	  0.000000E+000	  0.000000E+000	  0.000000E+000	 -1.331771E+001	 -7.277539E+000	 -2.344628E+000	  1.323107E+000	  2.898768E+000	  2.455663E+000	  1.254720E+001	  1.674296E+001	  1.951152E+001	  2.133988E+001	  2.239006E+001	  2.245643E+001	  2.023404E+001	  1.802842E+001	  1.931329E+001	  0.000000E+000	  0.000000E+000	  0.000000E+000	  0.000000E+000	 -1.031754E+001	 -4.627701E+000	 -7.821613E-002	  2.963360E+000	  4.816870E+000	  6.907059E+000	  1.249713E+001	  1.464358E+001	  1.302297E+001	  9.129494E+000	  7.533898E+000	  7.636684E+000	  2.582939E+001	  2.497468E+001	  1.777972E+001
         2.8000	  4.794727E+001	  0.000000E+000	  0.000000E+000	  0.000000E+000	  0.000000E+000	 -1.161648E+001	 -8.941497E+000	 -5.155870E-002	  2.966747E+000	  3.880527E+000	  5.076338E+000	  6.867178E+000	  8.340905E+000	  9.888174E+000	  1.125756E+001	  1.226139E+001	  1.247218E+001	  1.267376E+001	  1.154860E+001	  1.192701E+001	  0.000000E+000	  0.000000E+000	  0.000000E+000	  0.000000E+000	 -1.317514E+001	 -7.098976E+000	 -2.127498E+000	  1.578767E+000	  3.189200E+000	  2.212009E+000	  1.281053E+001	  1.714010E+001	  2.474636E+001	  2.193453E+001	  2.308404E+001	  2.311697E+001	  2.092060E+001	  1.868658E+001	  2.003858E+001	  0.000000E+000	  0.000000E+000	  0.000000E+000	  0.000000E+000	 -1.014551E+001	 -4.852731E+000	 -1.343807E-001	  2.531526E+000	  4.305136E+000	  6.277050E+000	  1.393304E+001	  1.555252E+001	  1.386009E+001	  9.657818E+000	  7.259895E+000	  2.455800E+001	  2.533216E+001	  2.436627E+001	  1.736312E+001
         2.9000	  4.943216E+001	  0.000000E+000	  0.000000E+000	  0.000000E+000	  0.000000E+000	 -1.252144E+001	 -9.447049E+000	 -5.129548E-001	  2.525801E+000	  3.281057E+000	  4.504651E+000	  6.173461E+000	  7.714622E+000	  9.234151E+000	  1.059803E+001	  1.160362E+001	  1.186308E+001	  1.219409E+001	  1.117390E+001	  1.113652E+001	  0.000000E+000	  0.000000E+000	  0.000000E+000	  0.000000E+000	 -1.306111E+001	 -6.958140E+000	 -1.948533E+000	  1.740504E+000	  3.384096E+000	  2.167888E+000	  1.294556E+001	  1.740906E+001	  2.509031E+001	  2.630287E+001	  2.364493E+001	  2.362171E+001	  2.150392E+001	  1.922291E+001	  2.054613E+001	  0.000000E+000	  0.000000E+000	  0.000000E+000	  0.000000E+000	 -1.024493E+001	 -4.585616E+000	 -2.732797E-001	  1.991023E+000	  3.699629E+000	  4.606394E+000	  1.205356E+001	  2.008570E+001	  2.170402E+001	  2.100892E+001	  2.349923E+001	  2.427807E+001	  2.491795E+001	  2.381870E+001	  1.729097E+001