
Predictions were generated on 19-Aug-2019 at 16:37:54 using AA 
 AeroAcoustics
Number of observers      :    1
Number of frequencies    :   34
     Time           	Obs1_Freq10         	Obs1_Freq12.5       	Obs1_Freq16         	Obs1_Freq20         	Obs1_Freq25         	Obs1_Freq31.5       	Obs1_Freq40         	Obs1_Freq50         	Obs1_Freq63         	Obs1_Freq80         	Obs1_Freq100        	Obs1_Freq125        	Obs1_Freq160        	Obs1_Freq200        	Obs1_Freq250        	Obs1_Freq315        	Obs1_Freq400        	Obs1_Freq500        	Obs1_Freq630        	Obs1_Freq800        	Obs1_Freq1000       	Obs1_Freq1250       	Obs1_Freq1600       	Obs1_Freq2000       	Obs1_Freq2500       	Obs1_Freq3150       	Obs1_Freq4000       	Obs1_Freq5000       	Obs1_Freq6300       	Obs1_Freq8000       	Obs1_Freq10000      	Obs1_Freq12500      	Obs1_Freq16000      	Obs1_Freq20000      
      (s)           	SPL                 	SPL                 	SPL                 	SPL                 	SPL                 	SPL                 	SPL                 	SPL                 	SPL                 	SPL                 	SPL                 	SPL                 	SPL                 	SPL                 	SPL                 	SPL                 	SPL                 	SPL                 	SPL                 	SPL                 	SPL                 	SPL                 	SPL                 	SPL                 	SPL                 	SPL                 	SPL                 	SPL                 	SPL                 	SPL                 	SPL                 	SPL                 	SPL                 	SPL                 
         0.1000	  5.042344E+001	  4.881396E+001	  4.727519E+001	  4.618664E+001	  4.519400E+001	  4.396285E+001	  4.250374E+001	  4.136077E+001	  4.055742E+001	  4.006769E+001	  3.987419E+001	  3.991161E+001	  4.020079E+001	  4.039798E+001	  4.025617E+001	  3.990486E+001	  3.938292E+001	  3.872280E+001	  3.775872E+001	  3.636134E+001	  3.476971E+001	  3.307444E+001	  3.117590E+001	  2.941455E+001	  2.758444E+001	  2.559017E+001	  2.339313E+001	  2.119049E+001	  1.873198E+001	  1.597648E+001	  1.318325E+001	  1.015627E+001	  6.509259E+000	  2.919200E+000
         0.2000	  5.022162E+001	  4.894532E+001	  4.744834E+001	  4.631971E+001	  4.537438E+001	  4.421729E+001	  4.259854E+001	  4.115626E+001	  4.004161E+001	  3.927250E+001	  3.876823E+001	  3.821756E+001	  3.759159E+001	  3.735475E+001	  3.742619E+001	  3.776082E+001	  3.805174E+001	  3.800079E+001	  3.740909E+001	  3.624520E+001	  3.480514E+001	  3.321405E+001	  3.140520E+001	  2.971474E+001	  2.794818E+001	  2.601477E+001	  2.387775E+001	  2.172866E+001	  1.932197E+001	  1.661516E+001	  1.386260E+001	  1.087179E+001	  7.260148E+000	  3.698835E+000
         0.3000	  5.021966E+001	  4.908394E+001	  4.756704E+001	  4.638740E+001	  4.535360E+001	  4.423107E+001	  4.276373E+001	  4.131619E+001	  4.018514E+001	  3.939965E+001	  3.888144E+001	  3.836324E+001	  3.773809E+001	  3.741937E+001	  3.739449E+001	  3.765819E+001	  3.790209E+001	  3.781016E+001	  3.722465E+001	  3.615561E+001	  3.485728E+001	  3.336348E+001	  3.157417E+001	  2.989989E+001	  2.815861E+001	  2.626003E+001	  2.416943E+001	  2.207560E+001	  1.974074E+001	  1.712635E+001	  1.447924E+001	  1.161490E+001	  8.170811E+000	  4.788765E+000
         0.4000	  4.706371E+001	  4.575031E+001	  4.428284E+001	  4.338295E+001	  4.299618E+001	  4.277249E+001	  4.209230E+001	  4.110887E+001	  4.025219E+001	  3.989814E+001	  3.980430E+001	  3.953688E+001	  3.899324E+001	  3.863466E+001	  3.856228E+001	  3.875423E+001	  3.886061E+001	  3.863051E+001	  3.790282E+001	  3.670149E+001	  3.529189E+001	  3.371176E+001	  3.189485E+001	  3.019836E+001	  2.842650E+001	  2.648750E+001	  2.434568E+001	  2.219492E+001	  1.979100E+001	  1.709311E+001	  1.435550E+001	  1.138708E+001	  7.810211E+000	  4.290468E+000
         0.5000	  4.766822E+001	  4.601596E+001	  4.427914E+001	  4.304881E+001	  4.225262E+001	  4.133546E+001	  3.974622E+001	  3.846349E+001	  3.791722E+001	  3.817509E+001	  3.867288E+001	  3.903380E+001	  3.917509E+001	  3.927466E+001	  3.948599E+001	  3.974027E+001	  3.977436E+001	  3.936660E+001	  3.843438E+001	  3.703495E+001	  3.546469E+001	  3.380186E+001	  3.192962E+001	  3.018251E+001	  2.835761E+001	  2.635857E+001	  2.414608E+001	  2.191927E+001	  1.942527E+001	  1.662156E+001	  1.377281E+001	  1.068059E+001	  6.950846E+000	  3.277365E+000
         0.6000	  4.945090E+001	  4.867937E+001	  4.764045E+001	  4.626000E+001	  4.496950E+001	  4.406013E+001	  4.329492E+001	  4.232901E+001	  4.125838E+001	  4.087364E+001	  4.098709E+001	  4.121563E+001	  4.150432E+001	  4.199561E+001	  4.225946E+001	  4.192128E+001	  4.110743E+001	  4.008604E+001	  3.870522E+001	  3.686614E+001	  3.500523E+001	  3.313184E+001	  3.104999E+001	  2.913453E+001	  2.716143E+001	  2.502011E+001	  2.265987E+001	  2.029035E+001	  1.764530E+001	  1.468518E+001	  1.169290E+001	  8.462048E+000	  4.587039E+000	  7.913045E-001
         0.7000	  5.154129E+001	  5.079032E+001	  4.958409E+001	  4.799167E+001	  4.669628E+001	  4.581059E+001	  4.499267E+001	  4.393734E+001	  4.313181E+001	  4.322515E+001	  4.387786E+001	  4.470877E+001	  4.569685E+001	  4.618277E+001	  4.568035E+001	  4.431748E+001	  4.259287E+001	  4.066200E+001	  3.837840E+001	  3.603486E+001	  3.386522E+001	  3.171410E+001	  2.936950E+001	  2.723267E+001	  2.502128E+001	  2.260620E+001	  1.995142E+001	  1.731676E+001	  1.442493E+001	  1.125580E+001	  8.123173E+000	  4.813135E+000	  9.253269E-001	 -2.816845E+000
         0.8000	  5.325748E+001	  5.240329E+001	  5.106057E+001	  4.932590E+001	  4.786805E+001	  4.679854E+001	  4.591426E+001	  4.521579E+001	  4.500325E+001	  4.558905E+001	  4.648672E+001	  4.747443E+001	  4.842968E+001	  4.834207E+001	  4.714270E+001	  4.539734E+001	  4.321517E+001	  4.075321E+001	  3.822909E+001	  3.571983E+001	  3.343061E+001	  3.119068E+001	  2.876061E+001	  2.652534E+001	  2.419335E+001	  2.165377E+001	  1.889498E+001	  1.620022E+001	  1.329345E+001	  1.016371E+001	  7.115036E+000	  3.924965E+000	  1.955615E-001	 -3.395649E+000
         0.9000	  5.248239E+001	  5.186328E+001	  5.088531E+001	  4.962342E+001	  4.844713E+001	  4.754020E+001	  4.675937E+001	  4.612817E+001	  4.590897E+001	  4.640924E+001	  4.728981E+001	  4.832704E+001	  4.932146E+001	  4.928251E+001	  4.821578E+001	  4.656258E+001	  4.443240E+001	  4.214719E+001	  3.983309E+001	  3.751129E+001	  3.536616E+001	  3.323001E+001	  3.084946E+001	  2.860783E+001	  2.623175E+001	  2.360909E+001	  2.072206E+001	  1.786938E+001	  1.476774E+001	  1.141947E+001	  8.171124E+000	  4.804506E+000	  9.215048E-001	 -2.767105E+000
         1.0000	  5.179668E+001	  5.070889E+001	  4.931563E+001	  4.787477E+001	  4.661991E+001	  4.561749E+001	  4.486554E+001	  4.451423E+001	  4.481032E+001	  4.578824E+001	  4.702903E+001	  4.823918E+001	  4.933438E+001	  4.960564E+001	  4.891628E+001	  4.739084E+001	  4.538167E+001	  4.327479E+001	  4.113440E+001	  3.893649E+001	  3.687271E+001	  3.479097E+001	  3.243258E+001	  3.018133E+001	  2.777302E+001	  2.509404E+001	  2.212208E+001	  1.916433E+001	  1.592979E+001	  1.242637E+001	  9.029628E+000	  5.526365E+000	  1.520982E+000	 -2.245801E+000
         1.1000	  5.178609E+001	  5.070828E+001	  4.932684E+001	  4.790660E+001	  4.669460E+001	  4.577439E+001	  4.516864E+001	  4.501717E+001	  4.545754E+001	  4.632836E+001	  4.710181E+001	  4.785624E+001	  4.868792E+001	  4.902842E+001	  4.847648E+001	  4.703438E+001	  4.510022E+001	  4.300642E+001	  4.086836E+001	  3.867524E+001	  3.661667E+001	  3.454520E+001	  3.221209E+001	  2.999828E+001	  2.763936E+001	  2.502157E+001	  2.212078E+001	  1.923279E+001	  1.606751E+001	  1.262357E+001	  9.263066E+000	  5.772483E+000	  1.754712E+000	 -2.040170E+000
         1.2000	  5.167599E+001	  5.059222E+001	  4.917876E+001	  4.771128E+001	  4.641588E+001	  4.533267E+001	  4.442025E+001	  4.383146E+001	  4.384980E+001	  4.449848E+001	  4.540546E+001	  4.636760E+001	  4.728534E+001	  4.750878E+001	  4.716950E+001	  4.615589E+001	  4.438174E+001	  4.261136E+001	  4.057906E+001	  3.835675E+001	  3.627792E+001	  3.419253E+001	  3.187326E+001	  2.971838E+001	  2.746721E+001	  2.499885E+001	  2.227608E+001	  1.956455E+001	  1.657970E+001	  1.330200E+001	  1.005977E+001	  6.636567E+000	  2.625326E+000	 -1.221687E+000
         1.3000	  4.898497E+001	  4.799783E+001	  4.670176E+001	  4.537610E+001	  4.442451E+001	  4.379629E+001	  4.329519E+001	  4.299809E+001	  4.325014E+001	  4.406023E+001	  4.502724E+001	  4.596948E+001	  4.675764E+001	  4.675462E+001	  4.610333E+001	  4.505201E+001	  4.357208E+001	  4.203075E+001	  4.025799E+001	  3.827747E+001	  3.630651E+001	  3.431716E+001	  3.208624E+001	  3.000913E+001	  2.784917E+001	  2.550064E+001	  2.292827E+001	  2.037353E+001	  1.755787E+001	  1.445029E+001	  1.135013E+001	  8.041082E+000	  4.112681E+000	  2.956934E-001
         1.4000	  5.112032E+001	  5.066303E+001	  4.929941E+001	  4.781716E+001	  4.676691E+001	  4.610594E+001	  4.528026E+001	  4.429102E+001	  4.380037E+001	  4.403388E+001	  4.464693E+001	  4.546252E+001	  4.636639E+001	  4.642999E+001	  4.565403E+001	  4.442474E+001	  4.274461E+001	  4.106564E+001	  3.921208E+001	  3.719862E+001	  3.522623E+001	  3.325745E+001	  3.106644E+001	  2.902995E+001	  2.691133E+001	  2.460742E+001	  2.208526E+001	  1.958156E+001	  1.682154E+001	  1.377217E+001	  1.072489E+001	  7.465420E+000	  3.586316E+000	 -1.921847E-001
         1.5000	  5.243082E+001	  5.122972E+001	  4.943178E+001	  4.783845E+001	  4.661363E+001	  4.561868E+001	  4.443610E+001	  4.333340E+001	  4.300390E+001	  4.347413E+001	  4.425264E+001	  4.524445E+001	  4.637825E+001	  4.638966E+001	  4.541492E+001	  4.404158E+001	  4.215698E+001	  4.023429E+001	  3.816922E+001	  3.598575E+001	  3.390957E+001	  3.188176E+001	  2.967333E+001	  2.765064E+001	  2.556298E+001	  2.330169E+001	  2.082839E+001	  1.837037E+001	  1.565462E+001	  1.264558E+001	  9.630107E+000	  6.397102E+000	  2.542438E+000	 -1.216605E+000
         1.6000	  5.254225E+001	  5.129274E+001	  4.947963E+001	  4.791873E+001	  4.671578E+001	  4.571151E+001	  4.449101E+001	  4.334886E+001	  4.296493E+001	  4.343031E+001	  4.423333E+001	  4.521534E+001	  4.635763E+001	  4.645160E+001	  4.554071E+001	  4.417560E+001	  4.224212E+001	  4.019809E+001	  3.806729E+001	  3.578075E+001	  3.364047E+001	  3.155051E+001	  2.928046E+001	  2.720328E+001	  2.505791E+001	  2.273302E+001	  2.019174E+001	  1.767163E+001	  1.489716E+001	  1.183749E+001	  8.787007E+000	  5.532737E+000	  1.671363E+000	 -2.079081E+000
         1.7000	  5.249725E+001	  5.122188E+001	  4.941077E+001	  4.786927E+001	  4.667636E+001	  4.567293E+001	  4.446357E+001	  4.336185E+001	  4.300950E+001	  4.349508E+001	  4.433083E+001	  4.529250E+001	  4.639678E+001	  4.652501E+001	  4.562632E+001	  4.422578E+001	  4.227030E+001	  4.016716E+001	  3.801913E+001	  3.569765E+001	  3.353590E+001	  3.142508E+001	  2.913446E+001	  2.703859E+001	  2.487324E+001	  2.252666E+001	  1.996315E+001	  1.742434E+001	  1.463482E+001	  1.156631E+001	  8.515115E+000	  5.267976E+000	  1.423226E+000	 -2.305447E+000
         1.8000	  5.233042E+001	  5.106414E+001	  4.927438E+001	  4.771616E+001	  4.649786E+001	  4.548907E+001	  4.432467E+001	  4.327374E+001	  4.295732E+001	  4.350197E+001	  4.441050E+001	  4.539406E+001	  4.640859E+001	  4.657579E+001	  4.579850E+001	  4.445850E+001	  4.261220E+001	  4.062474E+001	  3.858439E+001	  3.636819E+001	  3.426803E+001	  3.218738E+001	  2.989472E+001	  2.777339E+001	  2.556632E+001	  2.316420E+001	  2.053516E+001	  1.793201E+001	  1.507716E+001	  1.194727E+001	  8.847850E+000	  5.563137E+000	  1.689391E+000	 -2.055500E+000
         1.9000	  5.164279E+001	  5.053682E+001	  4.887432E+001	  4.733368E+001	  4.613181E+001	  4.519280E+001	  4.421119E+001	  4.337329E+001	  4.327258E+001	  4.399330E+001	  4.505814E+001	  4.615822E+001	  4.705721E+001	  4.714166E+001	  4.640393E+001	  4.511766E+001	  4.336286E+001	  4.150304E+001	  3.957786E+001	  3.746499E+001	  3.543220E+001	  3.337902E+001	  3.107031E+001	  2.890237E+001	  2.662507E+001	  2.413006E+001	  2.138879E+001	  1.867138E+001	  1.569513E+001	  1.244448E+001	  9.243858E+000	  5.874503E+000	  1.929505E+000	 -1.859879E+000
         2.0000	  5.120310E+001	  5.017420E+001	  4.860942E+001	  4.705380E+001	  4.589478E+001	  4.519567E+001	  4.477302E+001	  4.457110E+001	  4.457596E+001	  4.477936E+001	  4.545052E+001	  4.636212E+001	  4.712749E+001	  4.715734E+001	  4.636813E+001	  4.512366E+001	  4.349429E+001	  4.173361E+001	  3.990296E+001	  3.787334E+001	  3.591651E+001	  3.391153E+001	  3.163014E+001	  2.947502E+001	  2.720286E+001	  2.470307E+001	  2.194316E+001	  1.919353E+001	  1.616724E+001	  1.284739E+001	  9.569293E+000	  6.115860E+000	  2.078951E+000	 -1.784819E+000
         2.1000	  5.047294E+001	  4.956117E+001	  4.806659E+001	  4.647667E+001	  4.539030E+001	  4.491458E+001	  4.474555E+001	  4.467028E+001	  4.461850E+001	  4.480355E+001	  4.555198E+001	  4.646688E+001	  4.721769E+001	  4.729192E+001	  4.654126E+001	  4.521849E+001	  4.354210E+001	  4.178057E+001	  3.990522E+001	  3.784446E+001	  3.588397E+001	  3.387254E+001	  3.157936E+001	  2.940994E+001	  2.711835E+001	  2.459057E+001	  2.179344E+001	  1.900303E+001	  1.593032E+001	  1.256090E+001	  9.238635E+000	  5.746931E+000	  1.678517E+000	 -2.201819E+000
         2.2000	  4.791204E+001	  4.798034E+001	  4.822536E+001	  4.758885E+001	  4.607726E+001	  4.500328E+001	  4.466591E+001	  4.453760E+001	  4.447677E+001	  4.510126E+001	  4.612900E+001	  4.705847E+001	  4.764392E+001	  4.756732E+001	  4.673328E+001	  4.531032E+001	  4.359460E+001	  4.181028E+001	  3.985415E+001	  3.778040E+001	  3.581474E+001	  3.379357E+001	  3.148491E+001	  2.930001E+001	  2.699057E+001	  2.444055E+001	  2.161762E+001	  1.880163E+001	  1.570101E+001	  1.230118E+001	  8.949598E+000	  5.429022E+000	  1.331683E+000	 -2.569558E+000
         2.3000	  4.381883E+001	  4.270473E+001	  4.176235E+001	  4.134978E+001	  4.153236E+001	  4.219161E+001	  4.321666E+001	  4.386354E+001	  4.427515E+001	  4.514185E+001	  4.629313E+001	  4.732497E+001	  4.789199E+001	  4.770880E+001	  4.675018E+001	  4.525945E+001	  4.352292E+001	  4.169829E+001	  3.965130E+001	  3.756625E+001	  3.558959E+001	  3.355544E+001	  3.123359E+001	  2.903882E+001	  2.671852E+001	  2.415516E+001	  2.131823E+001	  1.849049E+001	  1.537969E+001	  1.197192E+001	  8.615713E+000	  5.093760E+000	  9.993367E-001	 -2.894830E+000
         2.4000	  4.441046E+001	  4.306296E+001	  4.171083E+001	  4.068476E+001	  4.004058E+001	  3.992959E+001	  4.044051E+001	  4.140548E+001	  4.276922E+001	  4.436363E+001	  4.581997E+001	  4.704644E+001	  4.780522E+001	  4.771274E+001	  4.677368E+001	  4.527033E+001	  4.352503E+001	  4.166151E+001	  3.960432E+001	  3.752321E+001	  3.554488E+001	  3.350798E+001	  3.118171E+001	  2.897766E+001	  2.664094E+001	  2.405452E+001	  2.118992E+001	  1.833512E+001	  1.519798E+001	  1.176871E+001	  8.401478E+000	  4.880063E+000	  8.007070E-001	 -3.068508E+000
         2.5000	  4.518472E+001	  4.369839E+001	  4.220181E+001	  4.107133E+001	  4.031649E+001	  4.010418E+001	  4.054019E+001	  4.145342E+001	  4.276433E+001	  4.431200E+001	  4.575259E+001	  4.700860E+001	  4.783312E+001	  4.784088E+001	  4.705450E+001	  4.565486E+001	  4.388004E+001	  4.215168E+001	  4.016541E+001	  3.811334E+001	  3.616064E+001	  3.414726E+001	  3.183650E+001	  2.963932E+001	  2.730822E+001	  2.472656E+001	  2.186276E+001	  1.900278E+001	  1.585267E+001	  1.240051E+001	  9.002643E+000	  5.442216E+000	  1.312203E+000	 -2.606355E+000
         2.6000	  4.593583E+001	  4.441513E+001	  4.286817E+001	  4.164627E+001	  4.073162E+001	  4.033460E+001	  4.060465E+001	  4.140252E+001	  4.261795E+001	  4.409969E+001	  4.552253E+001	  4.679452E+001	  4.768240E+001	  4.782691E+001	  4.726759E+001	  4.606981E+001	  4.434418E+001	  4.271101E+001	  4.085947E+001	  3.884291E+001	  3.692183E+001	  3.494104E+001	  3.266270E+001	  3.049267E+001	  2.819104E+001	  2.564257E+001	  2.281175E+001	  1.997732E+001	  1.684439E+001	  1.339562E+001	  9.983963E+000	  6.391115E+000	  2.203904E+000	 -1.782104E+000
         2.7000	  4.646531E+001	  4.491911E+001	  4.335060E+001	  4.208638E+001	  4.106501E+001	  4.051262E+001	  4.063080E+001	  4.132634E+001	  4.247377E+001	  4.389611E+001	  4.528726E+001	  4.654444E+001	  4.749831E+001	  4.769932E+001	  4.725372E+001	  4.622368E+001	  4.458721E+001	  4.297900E+001	  4.124197E+001	  3.924379E+001	  3.733397E+001	  3.537152E+001	  3.312104E+001	  3.098193E+001	  2.871863E+001	  2.621907E+001	  2.344594E+001	  2.066845E+001	  1.759432E+001	  1.420208E+001	  1.083481E+001	  7.273689E+000	  3.102386E+000	 -8.886462E-001
         2.8000	  5.052207E+001	  4.979810E+001	  4.843461E+001	  4.724104E+001	  4.631783E+001	  4.558420E+001	  4.484774E+001	  4.420109E+001	  4.403742E+001	  4.449588E+001	  4.535509E+001	  4.645456E+001	  4.746681E+001	  4.772864E+001	  4.728351E+001	  4.633218E+001	  4.484455E+001	  4.327915E+001	  4.158586E+001	  3.964430E+001	  3.774660E+001	  3.579685E+001	  3.356650E+001	  3.145178E+001	  2.921753E+001	  2.675324E+001	  2.402171E+001	  2.128637E+001	  1.825788E+001	  1.491322E+001	  1.158852E+001	  8.065323E+000	  3.926861E+000	 -4.572699E-002
         2.9000	  5.194744E+001	  5.130102E+001	  4.995660E+001	  4.875206E+001	  4.779844E+001	  4.697694E+001	  4.608354E+001	  4.528196E+001	  4.492235E+001	  4.518095E+001	  4.588957E+001	  4.688427E+001	  4.779092E+001	  4.793058E+001	  4.735184E+001	  4.636683E+001	  4.501800E+001	  4.358385E+001	  4.191900E+001	  4.003615E+001	  3.815697E+001	  3.622018E+001	  3.400168E+001	  3.190227E+001	  2.969081E+001	  2.725927E+001	  2.457214E+001	  2.188756E+001	  1.891948E+001	  1.564255E+001	  1.238160E+001	  8.917357E+000	  4.832099E+000	  8.919906E-001
         3.0000	  5.298881E+001	  5.164877E+001	  4.998787E+001	  4.859051E+001	  4.737602E+001	  4.618808E+001	  4.496577E+001	  4.410676E+001	  4.384122E+001	  4.426565E+001	  4.513014E+001	  4.625141E+001	  4.723299E+001	  4.748567E+001	  4.710841E+001	  4.626110E+001	  4.494993E+001	  4.351739E+001	  4.186631E+001	  3.997732E+001	  3.809935E+001	  3.616048E+001	  3.393893E+001	  3.183433E+001	  2.961289E+001	  2.716441E+001	  2.445223E+001	  2.173769E+001	  1.873293E+001	  1.541382E+001	  1.211190E+001	  8.607907E+000	  4.483295E+000	  5.141150E-001
         3.1000	  5.202191E+001	  5.149967E+001	  5.026717E+001	  4.901474E+001	  4.801422E+001	  4.719859E+001	  4.636340E+001	  4.559986E+001	  4.526753E+001	  4.556213E+001	  4.629739E+001	  4.729684E+001	  4.809488E+001	  4.818141E+001	  4.762798E+001	  4.669306E+001	  4.533224E+001	  4.386835E+001	  4.225690E+001	  4.039942E+001	  3.855593E+001	  3.663184E+001	  3.440231E+001	  3.227189E+001	  3.001000E+001	  2.750623E+001	  2.472378E+001	  2.193234E+001	  1.883750E+001	  1.541651E+001	  1.201529E+001	  8.413285E+000	  4.188985E+000	  1.437322E-001
         3.2000	  5.189842E+001	  5.078424E+001	  4.926287E+001	  4.779027E+001	  4.652605E+001	  4.548590E+001	  4.461939E+001	  4.407130E+001	  4.411557E+001	  4.479561E+001	  4.576214E+001	  4.678719E+001	  4.756969E+001	  4.767208E+001	  4.720229E+001	  4.624780E+001	  4.481135E+001	  4.330318E+001	  4.162815E+001	  3.971515E+001	  3.782019E+001	  3.586188E+001	  3.361217E+001	  3.147386E+001	  2.921201E+001	  2.671727E+001	  2.395515E+001	  2.119420E+001	  1.814404E+001	  1.478374E+001	  1.145129E+001	  7.926580E+000	  3.791843E+000	 -1.750911E-001
         3.3000	  4.916747E+001	  4.819956E+001	  4.679901E+001	  4.555568E+001	  4.469859E+001	  4.408982E+001	  4.355112E+001	  4.321232E+001	  4.344881E+001	  4.426137E+001	  4.520943E+001	  4.612629E+001	  4.691498E+001	  4.696814E+001	  4.632474E+001	  4.528024E+001	  4.380706E+001	  4.224111E+001	  4.048251E+001	  3.851761E+001	  3.658367E+001	  3.461229E+001	  3.237939E+001	  3.028330E+001	  2.808744E+001	  2.568337E+001	  2.303514E+001	  2.039498E+001	  1.747936E+001	  1.426110E+001	  1.105655E+001	  7.648072E+000	  3.621779E+000	 -2.685746E-001
         3.4000	  4.924965E+001	  4.830070E+001	  4.646528E+001	  4.480685E+001	  4.369912E+001	  4.313411E+001	  4.255968E+001	  4.209522E+001	  4.244888E+001	  4.346941E+001	  4.458133E+001	  4.543839E+001	  4.599666E+001	  4.603336E+001	  4.548294E+001	  4.455956E+001	  4.323308E+001	  4.169186E+001	  3.994772E+001	  3.799456E+001	  3.605591E+001	  3.408042E+001	  3.185371E+001	  2.977455E+001	  2.760425E+001	  2.523388E+001	  2.262679E+001	  2.002928E+001	  1.716007E+001	  1.398974E+001	  1.082763E+001	  7.457484E+000	  3.467421E+000	 -3.961823E-001
         3.5000	  4.882282E+001	  4.796281E+001	  4.640979E+001	  4.470028E+001	  4.350432E+001	  4.289185E+001	  4.246719E+001	  4.211801E+001	  4.241792E+001	  4.337003E+001	  4.443768E+001	  4.521601E+001	  4.559239E+001	  4.561930E+001	  4.516421E+001	  4.426879E+001	  4.304159E+001	  4.155182E+001	  3.980588E+001	  3.785536E+001	  3.591489E+001	  3.392879E+001	  3.168761E+001	  2.959766E+001	  2.741766E+001	  2.503629E+001	  2.241671E+001	  1.980728E+001	  1.692630E+001	  1.374519E+001	  1.057499E+001	  7.199222E+000	  3.206170E+000	 -6.571235E-001
         3.6000	  5.004830E+001	  4.962182E+001	  4.846655E+001	  4.694992E+001	  4.582770E+001	  4.504690E+001	  4.429006E+001	  4.348687E+001	  4.313125E+001	  4.349560E+001	  4.430694E+001	  4.517888E+001	  4.574446E+001	  4.584328E+001	  4.546217E+001	  4.459941E+001	  4.331578E+001	  4.189178E+001	  4.016526E+001	  3.823481E+001	  3.632876E+001	  3.436703E+001	  3.213491E+001	  3.003840E+001	  2.783979E+001	  2.542584E+001	  2.275817E+001	  2.009178E+001	  1.714160E+001	  1.388128E+001	  1.063393E+001	  7.182154E+000	  3.111213E+000	 -8.132853E-001
         3.7000	  5.163160E+001	  5.080238E+001	  4.983341E+001	  4.864388E+001	  4.712645E+001	  4.586195E+001	  4.493999E+001	  4.418811E+001	  4.354916E+001	  4.362368E+001	  4.432276E+001	  4.526226E+001	  4.618715E+001	  4.652347E+001	  4.613310E+001	  4.509922E+001	  4.365766E+001	  4.217058E+001	  4.045418E+001	  3.852211E+001	  3.663852E+001	  3.469719E+001	  3.247432E+001	  3.037069E+001	  2.815110E+001	  2.570169E+001	  2.298309E+001	  2.025704E+001	  1.723493E+001	  1.389324E+001	  1.056837E+001	  7.043107E+000	  2.901740E+000	 -1.072466E+000
         3.8000	  5.213337E+001	  5.071714E+001	  4.888776E+001	  4.728721E+001	  4.589293E+001	  4.462285E+001	  4.344583E+001	  4.266681E+001	  4.260059E+001	  4.328144E+001	  4.428248E+001	  4.531132E+001	  4.617992E+001	  4.639195E+001	  4.589704E+001	  4.477769E+001	  4.323266E+001	  4.162612E+001	  3.983564E+001	  3.786453E+001	  3.596534E+001	  3.401807E+001	  3.179980E+001	  2.970587E+001	  2.749798E+001	  2.506216E+001	  2.235929E+001	  1.964925E+001	  1.664445E+001	  1.332093E+001	  1.001318E+001	  6.505552E+000	  2.385324E+000	 -1.567180E+000
         3.9000	  5.193944E+001	  5.057349E+001	  4.878105E+001	  4.722379E+001	  4.589386E+001	  4.471249E+001	  4.361953E+001	  4.287367E+001	  4.283559E+001	  4.355795E+001	  4.458073E+001	  4.559889E+001	  4.641977E+001	  4.652514E+001	  4.596313E+001	  4.469150E+001	  4.280785E+001	  4.086994E+001	  3.885185E+001	  3.662648E+001	  3.453751E+001	  3.245490E+001	  3.014371E+001	  2.799146E+001	  2.573993E+001	  2.327597E+001	  2.056703E+001	  1.787803E+001	  1.492775E+001	  1.169898E+001	  8.514086E+000	  5.156872E+000	  1.223220E+000	 -2.555730E+000
         4.0000	  5.093809E+001	  4.969109E+001	  4.800785E+001	  4.658216E+001	  4.540342E+001	  4.437349E+001	  4.344137E+001	  4.290030E+001	  4.312264E+001	  4.406125E+001	  4.518146E+001	  4.629497E+001	  4.727974E+001	  4.727013E+001	  4.626245E+001	  4.464463E+001	  4.254295E+001	  4.036340E+001	  3.807217E+001	  3.564262E+001	  3.343270E+001	  3.126242E+001	  2.888991E+001	  2.670825E+001	  2.444731E+001	  2.199267E+001	  1.931591E+001	  1.667989E+001	  1.380696E+001	  1.067748E+001	  7.596063E+000	  4.344859E+000	  5.230570E-001	 -3.164932E+000
         4.1000	  4.925257E+001	  4.819134E+001	  4.669524E+001	  4.548752E+001	  4.454313E+001	  4.371869E+001	  4.297071E+001	  4.263300E+001	  4.305333E+001	  4.412014E+001	  4.533450E+001	  4.652427E+001	  4.749081E+001	  4.742963E+001	  4.634417E+001	  4.466290E+001	  4.266083E+001	  4.051294E+001	  3.816429E+001	  3.576237E+001	  3.356467E+001	  3.138690E+001	  2.899638E+001	  2.679964E+001	  2.452064E+001	  2.203980E+001	  1.932983E+001	  1.666006E+001	  1.375187E+001	  1.058828E+001	  7.479584E+000	  4.207408E+000	  3.709947E-001	 -3.322299E+000
         4.2000	  4.781677E+001	  4.834377E+001	  4.847053E+001	  4.825278E+001	  4.758772E+001	  4.651797E+001	  4.574864E+001	  4.529466E+001	  4.497905E+001	  4.497760E+001	  4.548728E+001	  4.624045E+001	  4.689328E+001	  4.683886E+001	  4.596043E+001	  4.439266E+001	  4.252861E+001	  4.059916E+001	  3.824294E+001	  3.587333E+001	  3.368559E+001	  3.150519E+001	  2.911600E+001	  2.693774E+001	  2.469096E+001	  2.224767E+001	  1.957432E+001	  1.693320E+001	  1.404590E+001	  1.089225E+001	  7.781662E+000	  4.498082E+000	  6.411849E-001	 -3.074125E+000
         4.3000	  4.428873E+001	  4.460657E+001	  4.537344E+001	  4.616569E+001	  4.620568E+001	  4.551339E+001	  4.491461E+001	  4.467830E+001	  4.471591E+001	  4.499674E+001	  4.558962E+001	  4.637699E+001	  4.695772E+001	  4.679220E+001	  4.597086E+001	  4.458086E+001	  4.276607E+001	  4.096172E+001	  3.876918E+001	  3.645080E+001	  3.430045E+001	  3.214525E+001	  2.976780E+001	  2.759282E+001	  2.535241E+001	  2.292053E+001	  2.025921E+001	  1.762602E+001	  1.474134E+001	  1.158256E+001	  8.458945E+000	  5.154258E+000	  1.265674E+000	 -2.483943E+000
         4.4000	  4.967548E+001	  4.889338E+001	  4.810895E+001	  4.780306E+001	  4.738362E+001	  4.638370E+001	  4.522799E+001	  4.462114E+001	  4.453000E+001	  4.472259E+001	  4.517521E+001	  4.588835E+001	  4.651461E+001	  4.642614E+001	  4.570595E+001	  4.451015E+001	  4.277406E+001	  4.099559E+001	  3.894465E+001	  3.666278E+001	  3.454295E+001	  3.242055E+001	  3.008237E+001	  2.794198E+001	  2.573609E+001	  2.334099E+001	  2.071545E+001	  1.811016E+001	  1.524659E+001	  1.209998E+001	  8.978450E+000	  5.667323E+000	  1.763001E+000	 -2.006948E+000
         4.5000	  5.074205E+001	  4.949158E+001	  4.781993E+001	  4.641539E+001	  4.525541E+001	  4.423798E+001	  4.330265E+001	  4.272817E+001	  4.286889E+001	  4.364478E+001	  4.459243E+001	  4.557735E+001	  4.644724E+001	  4.651556E+001	  4.587744E+001	  4.470040E+001	  4.292703E+001	  4.107015E+001	  3.904038E+001	  3.673629E+001	  3.461046E+001	  3.250139E+001	  3.019081E+001	  2.807763E+001	  2.589917E+001	  2.353357E+001	  2.093787E+001	  1.835717E+001	  1.551366E+001	  1.238051E+001	  9.264224E+000	  5.951367E+000	  2.037967E+000	 -1.745345E+000
         4.6000	  4.890187E+001	  4.733444E+001	  4.575117E+001	  4.454235E+001	  4.344275E+001	  4.235990E+001	  4.157015E+001	  4.150182E+001	  4.217908E+001	  4.333817E+001	  4.449573E+001	  4.561914E+001	  4.663415E+001	  4.673079E+001	  4.605464E+001	  4.484852E+001	  4.303342E+001	  4.112454E+001	  3.910213E+001	  3.679579E+001	  3.466492E+001	  3.255770E+001	  3.024946E+001	  2.813408E+001	  2.595105E+001	  2.358213E+001	  2.098602E+001	  1.840766E+001	  1.556914E+001	  1.244340E+001	  9.335266E+000	  6.030679E+000	  2.125224E+000	 -1.653067E+000
         4.7000	  4.940372E+001	  4.780094E+001	  4.615857E+001	  4.489948E+001	  4.377718E+001	  4.267455E+001	  4.176635E+001	  4.155519E+001	  4.207393E+001	  4.312716E+001	  4.423127E+001	  4.530772E+001	  4.620461E+001	  4.632067E+001	  4.581389E+001	  4.471094E+001	  4.290916E+001	  4.101967E+001	  3.904384E+001	  3.675968E+001	  3.462845E+001	  3.252688E+001	  3.023121E+001	  2.812875E+001	  2.596028E+001	  2.360978E+001	  2.103557E+001	  1.847883E+001	  1.566274E+001	  1.255923E+001	  9.470036E+000	  6.181798E+000	  2.290610E+000	 -1.478693E+000
         4.8000	  4.943891E+001	  4.788231E+001	  4.626687E+001	  4.501799E+001	  4.390632E+001	  4.281328E+001	  4.188535E+001	  4.162891E+001	  4.210247E+001	  4.312947E+001	  4.422140E+001	  4.527411E+001	  4.622052E+001	  4.637286E+001	  4.589603E+001	  4.488118E+001	  4.315263E+001	  4.130684E+001	  3.937453E+001	  3.714696E+001	  3.504187E+001	  3.296122E+001	  3.068160E+001	  2.858870E+001	  2.642653E+001	  2.408136E+001	  2.151230E+001	  1.895934E+001	  1.614517E+001	  1.304052E+001	  9.946669E+000	  6.649873E+000	  2.744662E+000	 -1.040998E+000
         4.9000	  4.954426E+001	  4.793378E+001	  4.627583E+001	  4.500246E+001	  4.387635E+001	  4.277852E+001	  4.185648E+001	  4.159978E+001	  4.205709E+001	  4.307019E+001	  4.415709E+001	  4.518818E+001	  4.612973E+001	  4.631258E+001	  4.585340E+001	  4.495117E+001	  4.339765E+001	  4.166738E+001	  3.979844E+001	  3.765396E+001	  3.559636E+001	  3.354829E+001	  3.129067E+001	  2.921262E+001	  2.706268E+001	  2.472781E+001	  2.216717E+001	  1.961929E+001	  1.680630E+001	  1.369715E+001	  1.059280E+001	  7.278878E+000	  3.347029E+000	 -4.689204E-001
         5.0000	  4.931878E+001	  4.771699E+001	  4.608449E+001	  4.484818E+001	  4.376976E+001	  4.276229E+001	  4.203743E+001	  4.201057E+001	  4.266541E+001	  4.376684E+001	  4.492697E+001	  4.606173E+001	  4.708239E+001	  4.723646E+001	  4.667866E+001	  4.563221E+001	  4.394889E+001	  4.219226E+001	  4.032936E+001	  3.817679E+001	  3.612840E+001	  3.407650E+001	  3.178843E+001	  2.965972E+001	  2.744255E+001	  2.502564E+001	  2.237183E+001	  1.973425E+001	  1.683099E+001	  1.363705E+001	  1.046577E+001	  7.099590E+000	  3.128167E+000	 -7.080066E-001