
Predictions were generated on 19-Aug-2019 at 16:37:54 using AA 
 AeroAcoustics
Number of observers      :    1
     Time           	Obs1                
      (s)           	OASPL               
         0.1000	  7.153955E+001
         0.2000	  7.136412E+001
         0.3000	  7.142729E+001
         0.4000	  6.933319E+001
         0.5000	  6.912423E+001
         0.6000	  7.163697E+001
         0.7000	  7.375962E+001
         0.8000	  7.537099E+001
         0.9000	  7.555873E+001
         1.0000	  7.478008E+001
         1.1000	  7.471459E+001
         1.2000	  7.407705E+001
         1.3000	  7.240817E+001
         1.4000	  7.378404E+001
         1.5000	  7.399085E+001
         1.6000	  7.405476E+001
         1.7000	  7.403007E+001
         1.8000	  7.394412E+001
         1.9000	  7.378820E+001
         2.0000	  7.373458E+001
         2.1000	  7.342570E+001
         2.2000	  7.313732E+001
         2.3000	  7.128632E+001
         2.4000	  7.083796E+001
         2.5000	  7.107218E+001
         2.6000	  7.127933E+001
         2.7000	  7.138153E+001
         2.8000	  7.376410E+001
         2.9000	  7.482365E+001
         3.0000	  7.480152E+001
         3.1000	  7.506972E+001
         3.2000	  7.429680E+001
         3.3000	  7.260466E+001
         3.4000	  7.208874E+001
         3.5000	  7.183956E+001
         3.6000	  7.303452E+001
         3.7000	  7.407001E+001
         3.8000	  7.367653E+001
         3.9000	  7.361811E+001
         4.0000	  7.323831E+001
         4.1000	  7.250657E+001
         4.2000	  7.326311E+001
         4.3000	  7.200815E+001
         4.4000	  7.331665E+001
         4.5000	  7.297894E+001
         4.6000	  7.182020E+001
         4.7000	  7.194283E+001
         4.8000	  7.202184E+001
         4.9000	  7.204796E+001
         5.0000	  7.230010E+001
         5.1000	  7.354603E+001
         5.2000	  7.377682E+001
         5.3000	  7.490466E+001
         5.4000	  7.473858E+001
         5.5000	  7.372860E+001
         5.6000	  7.342718E+001
         5.7000	  7.216472E+001
         5.8000	  7.308787E+001
         5.9000	  7.247277E+001
         6.0000	  7.063347E+001
         6.1000	  7.078678E+001
         6.2000	  7.109884E+001
         6.3000	  7.319772E+001
         6.4000	  7.350086E+001
         6.5000	  7.436216E+001
         6.6000	  7.432277E+001
         6.7000	  7.423165E+001
         6.8000	  7.308538E+001
         6.9000	  7.225368E+001
         7.0000	  7.380667E+001
         7.1000	  7.379189E+001
         7.2000	  7.376095E+001
         7.3000	  7.214239E+001
         7.4000	  7.220793E+001
         7.5000	  7.232134E+001
         7.6000	  7.389791E+001
         7.7000	  7.400521E+001
         7.8000	  7.441712E+001
         7.9000	  7.460378E+001
         8.0000	  7.313466E+001
         8.1000	  7.161138E+001
         8.2000	  7.155294E+001
         8.3000	  7.317586E+001
         8.4000	  7.350800E+001
         8.5000	  7.165710E+001
         8.6000	  7.198374E+001
         8.7000	  7.194616E+001
         8.8000	  7.215209E+001
         8.9000	  7.233635E+001
         9.0000	  7.276959E+001
         9.1000	  7.453940E+001
         9.2000	  7.445483E+001
         9.3000	  7.455118E+001
         9.4000	  7.394658E+001
         9.5000	  7.367163E+001
         9.6000	  7.328332E+001
         9.7000	  7.321622E+001
         9.8000	  7.365372E+001
         9.9000	  7.357924E+001
        10.0000	  7.333511E+001
        10.1000	  7.341983E+001
        10.2000	  7.170544E+001
        10.3000	  7.175323E+001
        10.4000	  7.292499E+001
        10.5000	  7.278423E+001
        10.6000	  7.295277E+001
        10.7000	  7.354075E+001
        10.8000	  7.309703E+001
        10.9000	  7.380473E+001
        11.0000	  7.242795E+001
        11.1000	  7.242853E+001
        11.2000	  7.243473E+001
        11.3000	  7.395847E+001
        11.4000	  7.407838E+001
        11.5000	  7.419111E+001
        11.6000	  7.335138E+001
        11.7000	  7.420588E+001
        11.8000	  7.404804E+001
        11.9000	  7.388298E+001
        12.0000	  7.393302E+001
        12.1000	  7.275693E+001
        12.2000	  7.281550E+001
        12.3000	  7.176645E+001
        12.4000	  7.207173E+001
        12.5000	  7.217220E+001
        12.6000	  7.217854E+001
        12.7000	  7.386081E+001
        12.8000	  7.380470E+001
        12.9000	  7.342297E+001
        13.0000	  7.334378E+001
        13.1000	  7.247804E+001
        13.2000	  7.379909E+001
        13.3000	  7.385258E+001
        13.4000	  7.420524E+001
        13.5000	  7.417965E+001
        13.6000	  7.393013E+001
        13.7000	  7.389812E+001
        13.8000	  7.297335E+001
        13.9000	  7.277837E+001
        14.0000	  7.288045E+001
        14.1000	  7.340950E+001
        14.2000	  7.190019E+001
        14.3000	  7.181197E+001
        14.4000	  7.192061E+001
        14.5000	  7.199309E+001
        14.6000	  7.200938E+001
        14.7000	  7.241200E+001
        14.8000	  7.398005E+001
        14.9000	  7.420783E+001
        15.0000	  7.317824E+001
        15.1000	  7.315393E+001
        15.2000	  7.293249E+001
        15.3000	  7.375186E+001
        15.4000	  7.327590E+001
        15.5000	  7.342645E+001
        15.6000	  7.373539E+001
        15.7000	  7.286449E+001
        15.8000	  7.327886E+001
        15.9000	  7.330695E+001
        16.0000	  7.398724E+001
        16.1000	  7.387894E+001
        16.2000	  7.389038E+001
        16.3000	  7.338245E+001
        16.4000	  7.186887E+001
        16.5000	  7.202771E+001
        16.6000	  7.206463E+001
        16.7000	  7.202232E+001
        16.8000	  7.314350E+001
        16.9000	  7.322725E+001
        17.0000	  7.454492E+001
        17.1000	  7.460232E+001
        17.2000	  7.416013E+001
        17.3000	  7.394297E+001
        17.4000	  7.396533E+001
        17.5000	  7.394634E+001
        17.6000	  7.413963E+001
        17.7000	  7.430125E+001
        17.8000	  7.336829E+001
        17.9000	  7.171633E+001
        18.0000	  7.181084E+001
        18.1000	  7.185467E+001
        18.2000	  7.186507E+001
        18.3000	  7.211087E+001
        18.4000	  7.214812E+001
        18.5000	  7.205178E+001
        18.6000	  7.218217E+001
        18.7000	  7.236910E+001
        18.8000	  7.265633E+001
        18.9000	  7.537212E+001
        19.0000	  7.517310E+001
        19.1000	  7.401862E+001
        19.2000	  7.377967E+001
        19.3000	  7.362023E+001
        19.4000	  7.360206E+001
        19.5000	  7.351001E+001
        19.6000	  7.387894E+001
        19.7000	  7.432788E+001
        19.8000	  7.435550E+001
        19.9000	  7.348334E+001
        20.0000	  7.322816E+001
        20.1000	  7.321265E+001
        20.2000	  7.326027E+001
        20.3000	  7.339148E+001
        20.4000	  7.183170E+001
        20.5000	  7.197782E+001
        20.6000	  7.216378E+001
        20.7000	  7.240658E+001
        20.8000	  7.256870E+001
        20.9000	  7.409651E+001
        21.0000	  7.508171E+001
        21.1000	  7.478559E+001
        21.2000	  7.436807E+001
        21.3000	  7.422137E+001
        21.4000	  7.381954E+001
        21.5000	  7.364824E+001
        21.6000	  7.365618E+001
        21.7000	  7.401165E+001
        21.8000	  7.431763E+001
        21.9000	  7.174211E+001
        22.0000	  7.186061E+001
        22.1000	  7.186579E+001
        22.2000	  7.183290E+001
        22.3000	  7.353433E+001
        22.4000	  7.351359E+001
        22.5000	  7.328493E+001
        22.6000	  7.371961E+001
        22.7000	  7.394079E+001
        22.8000	  7.405893E+001
        22.9000	  7.344680E+001
        23.0000	  7.270949E+001
        23.1000	  7.383458E+001
        23.2000	  7.386666E+001
        23.3000	  7.375131E+001
        23.4000	  7.395737E+001
        23.5000	  7.421739E+001
        23.6000	  7.434136E+001
        23.7000	  7.438073E+001
        23.8000	  7.434271E+001
        23.9000	  7.431494E+001
        24.0000	  7.187662E+001
        24.1000	  7.176616E+001
        24.2000	  7.191810E+001
        24.3000	  7.204637E+001
        24.4000	  7.213455E+001
        24.5000	  7.219134E+001
        24.6000	  7.234256E+001
        24.7000	  7.257796E+001
        24.8000	  7.427571E+001
        24.9000	  7.525934E+001
        25.0000	  7.473050E+001
        25.1000	  7.383365E+001
        25.2000	  7.377609E+001
        25.3000	  7.368604E+001
        25.4000	  7.363609E+001
        25.5000	  7.375683E+001
        25.6000	  7.320778E+001
        25.7000	  7.335461E+001
        25.8000	  7.341175E+001
        25.9000	  7.327904E+001
        26.0000	  7.332585E+001
        26.1000	  7.341528E+001
        26.2000	  7.350664E+001
        26.3000	  7.359296E+001
        26.4000	  7.365634E+001
        26.5000	  7.371534E+001
        26.6000	  7.388705E+001
        26.7000	  7.404550E+001
        26.8000	  7.425310E+001
        26.9000	  7.367445E+001
        27.0000	  7.404293E+001
        27.1000	  7.393678E+001
        27.2000	  7.381636E+001
        27.3000	  7.407804E+001
        27.4000	  7.423876E+001
        27.5000	  7.448127E+001
        27.6000	  7.321630E+001
        27.7000	  7.317996E+001
        27.8000	  7.192531E+001
        27.9000	  7.163276E+001
        28.0000	  7.167533E+001
        28.1000	  7.180900E+001
        28.2000	  7.194336E+001
        28.3000	  7.208354E+001
        28.4000	  7.216368E+001
        28.5000	  7.225400E+001
        28.6000	  7.401326E+001
        28.7000	  7.401986E+001
        28.8000	  7.473940E+001
        28.9000	  7.462703E+001
        29.0000	  7.400841E+001
        29.1000	  7.386194E+001
        29.2000	  7.379361E+001
        29.3000	  7.354144E+001
        29.4000	  7.367370E+001
        29.5000	  7.415130E+001
        29.6000	  7.348421E+001
        29.7000	  7.338298E+001
        29.8000	  7.339534E+001
        29.9000	  7.161399E+001
        30.0000	  7.166554E+001
