
Predictions were generated on 18-Aug-2019 at 17:39:23 using AA 
 AeroAcoustics
Number of observers      :    1
Number of frequencies    :   34
     Time           	Obs1_Freq10         	Obs1_Freq12.5       	Obs1_Freq16         	Obs1_Freq20         	Obs1_Freq25         	Obs1_Freq31.5       	Obs1_Freq40         	Obs1_Freq50         	Obs1_Freq63         	Obs1_Freq80         	Obs1_Freq100        	Obs1_Freq125        	Obs1_Freq160        	Obs1_Freq200        	Obs1_Freq250        	Obs1_Freq315        	Obs1_Freq400        	Obs1_Freq500        	Obs1_Freq630        	Obs1_Freq800        	Obs1_Freq1000       	Obs1_Freq1250       	Obs1_Freq1600       	Obs1_Freq2000       	Obs1_Freq2500       	Obs1_Freq3150       	Obs1_Freq4000       	Obs1_Freq5000       	Obs1_Freq6300       	Obs1_Freq8000       	Obs1_Freq10000      	Obs1_Freq12500      	Obs1_Freq16000      	Obs1_Freq20000      
      (s)           	SPL                 	SPL                 	SPL                 	SPL                 	SPL                 	SPL                 	SPL                 	SPL                 	SPL                 	SPL                 	SPL                 	SPL                 	SPL                 	SPL                 	SPL                 	SPL                 	SPL                 	SPL                 	SPL                 	SPL                 	SPL                 	SPL                 	SPL                 	SPL                 	SPL                 	SPL                 	SPL                 	SPL                 	SPL                 	SPL                 	SPL                 	SPL                 	SPL                 	SPL                 
         0.1000	  2.232250E+001	  2.061547E+001	  1.907743E+001	  1.807172E+001	  1.721796E+001	  1.612550E+001	  1.472890E+001	  1.362227E+001	  1.286703E+001	  1.248095E+001	  1.239138E+001	  1.247516E+001	  1.280633E+001	  1.303242E+001	  1.285244E+001	  1.237387E+001	  1.166901E+001	  1.085921E+001	  9.782383E+000	  8.271590E+000	  6.611353E+000	  4.871139E+000	  2.929518E+000	  1.133784E+000	 -7.263680E-001	 -2.748841E+000	 -4.973999E+000	 -7.202588E+000	 -9.687482E+000	 -1.246947E+001	 -1.528662E+001	 -1.833670E+001	 -2.200845E+001	 -2.562028E+001
         0.2000	  2.186124E+001	  2.047733E+001	  1.891901E+001	  1.777111E+001	  1.686231E+001	  1.574908E+001	  1.411588E+001	  1.266930E+001	  1.161271E+001	  1.096844E+001	  1.056951E+001	  1.001248E+001	  9.285871E+000	  8.993419E+000	  9.059232E+000	  9.423676E+000	  9.748286E+000	  9.719440E+000	  9.147946E+000	  8.012227E+000	  6.592054E+000	  5.014848E+000	  3.212277E+000	  1.528507E+000	 -2.304213E-001	 -2.155168E+000	 -4.282156E+000	 -6.420490E+000	 -8.814325E+000	 -1.150580E+001	 -1.424198E+001	 -1.721420E+001	 -2.080238E+001	 -2.433955E+001
         0.3000	  2.166575E+001	  2.048481E+001	  1.889123E+001	  1.766585E+001	  1.663450E+001	  1.558767E+001	  1.417774E+001	  1.271677E+001	  1.163410E+001	  1.098998E+001	  1.061684E+001	  1.015929E+001	  9.477084E+000	  9.091830E+000	  9.033588E+000	  9.299607E+000	  9.589335E+000	  9.552305E+000	  9.012847E+000	  7.951950E+000	  6.622182E+000	  5.104873E+000	  3.314967E+000	  1.642442E+000	 -9.856557E-002	 -1.998304E+000	 -4.091956E+000	 -6.190968E+000	 -8.534352E+000	 -1.116186E+001	 -1.382604E+001	 -1.671295E+001	 -2.018936E+001	 -2.360795E+001
         0.4000	  1.987182E+001	  1.847076E+001	  1.683156E+001	  1.573623E+001	  1.512499E+001	  1.464360E+001	  1.368827E+001	  1.255628E+001	  1.172349E+001	  1.145867E+001	  1.142800E+001	  1.115749E+001	  1.055299E+001	  1.015325E+001	  1.005186E+001	  1.022948E+001	  1.034722E+001	  1.014883E+001	  9.458221E+000	  8.283427E+000	  6.875759E+000	  5.298656E+000	  3.485524E+000	  1.792963E+000	  2.563558E-002	 -1.907855E+000	 -4.043084E+000	 -6.187031E+000	 -8.583510E+000	 -1.127359E+001	 -1.400408E+001	 -1.696583E+001	 -2.053617E+001	 -2.405107E+001
         0.5000	  2.057838E+001	  1.886283E+001	  1.706651E+001	  1.581377E+001	  1.503384E+001	  1.412775E+001	  1.251179E+001	  1.120972E+001	  1.065379E+001	  1.088044E+001	  1.127125E+001	  1.145386E+001	  1.138963E+001	  1.132449E+001	  1.139900E+001	  1.155582E+001	  1.153675E+001	  1.107100E+001	  1.007462E+001	  8.627388E+000	  7.008735E+000	  5.308947E+000	  3.401547E+000	  1.629636E+000	 -2.135960E-001	 -2.226882E+000	 -4.451370E+000	 -6.688200E+000	 -9.191885E+000	 -1.200503E+001	 -1.486214E+001	 -1.796233E+001	 -2.170049E+001	 -2.538127E+001
         0.6000	  2.240835E+001	  2.159033E+001	  2.051406E+001	  1.914699E+001	  1.794497E+001	  1.709587E+001	  1.629989E+001	  1.528699E+001	  1.420991E+001	  1.378937E+001	  1.381757E+001	  1.393974E+001	  1.413952E+001	  1.457662E+001	  1.471263E+001	  1.413475E+001	  1.304585E+001	  1.187242E+001	  1.039486E+001	  8.414239E+000	  6.468284E+000	  4.517288E+000	  2.359838E+000	  3.864116E-001	 -1.633861E+000	 -3.815594E+000	 -6.212009E+000	 -8.610404E+000	 -1.127916E+001	 -1.425603E+001	 -1.725615E+001	 -2.048706E+001	 -2.435327E+001	 -2.813359E+001
         0.7000	  2.481527E+001	  2.406218E+001	  2.282754E+001	  2.124298E+001	  1.995915E+001	  1.905210E+001	  1.817060E+001	  1.703184E+001	  1.609618E+001	  1.600236E+001	  1.645123E+001	  1.706346E+001	  1.788814E+001	  1.821408E+001	  1.750024E+001	  1.605525E+001	  1.429092E+001	  1.213702E+001	  9.754176E+000	  7.364602E+000	  5.148041E+000	  2.955953E+000	  5.887797E-001	 -1.559577E+000	 -3.784268E+000	 -6.210975E+000	 -8.867636E+000	 -1.149085E+001	 -1.435561E+001	 -1.748008E+001	 -2.055688E+001	 -2.380012E+001	 -2.760570E+001	 -3.127049E+001
         0.8000	  2.688653E+001	  2.598812E+001	  2.460043E+001	  2.285504E+001	  2.137953E+001	  2.026233E+001	  1.926058E+001	  1.833670E+001	  1.776322E+001	  1.792774E+001	  1.847849E+001	  1.920678E+001	  2.009452E+001	  2.002685E+001	  1.887212E+001	  1.712988E+001	  1.480059E+001	  1.226925E+001	  9.674452E+000	  7.080116E+000	  4.725391E+000	  2.444674E+000	 -7.574024E-003	 -2.257055E+000	 -4.599137E+000	 -7.140138E+000	 -9.887025E+000	 -1.255668E+001	 -1.542336E+001	 -1.849917E+001	 -2.149029E+001	 -2.462082E+001	 -2.828722E+001	 -3.182725E+001
         0.9000	  2.622283E+001	  2.561668E+001	  2.463283E+001	  2.334185E+001	  2.212328E+001	  2.115164E+001	  2.025514E+001	  1.942938E+001	  1.890084E+001	  1.901755E+001	  1.955887E+001	  2.036022E+001	  2.118846E+001	  2.108873E+001	  2.010111E+001	  1.846929E+001	  1.625277E+001	  1.406294E+001	  1.184118E+001	  9.589290E+000	  7.497259E+000	  5.399593E+000	  3.029045E+000	  7.690845E-001	 -1.643937E+000	 -4.322100E+000	 -7.286898E+000	 -1.023250E+001	 -1.344964E+001	 -1.693143E+001	 -2.030655E+001	 -2.378896E+001	 -2.777440E+001	 -3.152718E+001
         1.0000	  2.534475E+001	  2.424290E+001	  2.282126E+001	  2.134116E+001	  2.004014E+001	  1.897399E+001	  1.812262E+001	  1.763430E+001	  1.776296E+001	  1.855526E+001	  1.960981E+001	  2.065401E+001	  2.147815E+001	  2.154147E+001	  2.083138E+001	  1.935706E+001	  1.737627E+001	  1.546359E+001	  1.349132E+001	  1.142266E+001	  9.441970E+000	  7.403819E+000	  5.043322E+000	  2.758160E+000	  2.947778E-001	 -2.463278E+000	 -5.545590E+000	 -8.638170E+000	 -1.204851E+001	 -1.577093E+001	 -1.939634E+001	 -2.313225E+001	 -2.737108E+001	 -3.130663E+001
         1.1000	  2.519397E+001	  2.410042E+001	  2.268698E+001	  2.121943E+001	  1.994368E+001	  1.892379E+001	  1.814969E+001	  1.776853E+001	  1.799736E+001	  1.876585E+001	  1.962640E+001	  2.046734E+001	  2.116563E+001	  2.120322E+001	  2.043151E+001	  1.895736E+001	  1.702630E+001	  1.511397E+001	  1.314681E+001	  1.110077E+001	  9.147081E+000	  7.134425E+000	  4.804939E+000	  2.557110E+000	  1.426140E-001	 -2.552172E+000	 -5.556141E+000	 -8.566002E+000	 -1.188650E+001	 -1.552196E+001	 -1.908465E+001	 -2.278833E+001	 -2.703496E+001	 -3.101294E+001
         1.2000	  2.493525E+001	  2.384431E+001	  2.241861E+001	  2.094123E+001	  1.965039E+001	  1.859181E+001	  1.772947E+001	  1.721235E+001	  1.731187E+001	  1.801611E+001	  1.893774E+001	  1.984589E+001	  2.055856E+001	  2.047578E+001	  1.968718E+001	  1.827738E+001	  1.625381E+001	  1.432390E+001	  1.223165E+001	  1.003653E+001	  7.970801E+000	  5.877903E+000	  3.498951E+000	  1.237088E+000	 -1.164424E+000	 -3.818974E+000	 -6.751231E+000	 -9.662130E+000	 -1.284408E+001	 -1.629939E+001	 -1.966933E+001	 -2.317397E+001	 -2.721927E+001	 -3.105315E+001
         1.3000	  2.167721E+001	  2.078250E+001	  1.954824E+001	  1.826851E+001	  1.739965E+001	  1.688705E+001	  1.653026E+001	  1.639414E+001	  1.680212E+001	  1.771955E+001	  1.874618E+001	  1.969358E+001	  2.037443E+001	  2.020809E+001	  1.932638E+001	  1.793502E+001	  1.604159E+001	  1.422381E+001	  1.228757E+001	  1.021065E+001	  8.206825E+000	  6.165666E+000	  3.835335E+000	  1.619035E+000	 -7.262052E-001	 -3.304528E+000	 -6.138029E+000	 -8.941749E+000	 -1.200350E+001	 -1.533493E+001	 -1.860204E+001	 -2.202879E+001	 -2.602798E+001	 -2.986006E+001
         1.4000	  2.432697E+001	  2.401018E+001	  2.275737E+001	  2.134931E+001	  2.035086E+001	  1.971296E+001	  1.892924E+001	  1.799446E+001	  1.749643E+001	  1.767609E+001	  1.823667E+001	  1.901524E+001	  1.984264E+001	  1.979335E+001	  1.883510E+001	  1.733391E+001	  1.528894E+001	  1.333962E+001	  1.128997E+001	  9.139820E+000	  7.092567E+000	  5.046112E+000	  2.747313E+000	  5.820793E-001	 -1.694138E+000	 -4.181640E+000	 -6.900445E+000	 -9.580122E+000	 -1.250130E+001	 -1.568282E+001	 -1.881476E+001	 -2.211936E+001	 -2.600559E+001	 -2.975836E+001
         1.5000	  2.601841E+001	  2.469911E+001	  2.288687E+001	  2.131815E+001	  2.007103E+001	  1.897972E+001	  1.770628E+001	  1.658924E+001	  1.620612E+001	  1.658798E+001	  1.728502E+001	  1.823295E+001	  1.936966E+001	  1.933880E+001	  1.823558E+001	  1.661309E+001	  1.432346E+001	  1.205132E+001	  9.700022E+000	  7.295287E+000	  5.089747E+000	  2.968977E+000	  6.831119E-001	 -1.412208E+000	 -3.580182E+000	 -5.924534E+000	 -8.472247E+000	 -1.098132E+001	 -1.372627E+001	 -1.673785E+001	 -1.973051E+001	 -2.291855E+001	 -2.670197E+001	 -3.038191E+001
         1.6000	  2.608596E+001	  2.471403E+001	  2.289657E+001	  2.136247E+001	  2.013407E+001	  1.902504E+001	  1.770351E+001	  1.653648E+001	  1.607888E+001	  1.642973E+001	  1.713009E+001	  1.805724E+001	  1.919880E+001	  1.925433E+001	  1.823521E+001	  1.667090E+001	  1.443778E+001	  1.213095E+001	  9.780033E+000	  7.334686E+000	  5.099554E+000	  2.943026E+000	  6.216978E-001	 -1.504037E+000	 -3.706006E+000	 -6.091230E+000	 -8.686201E+000	 -1.124090E+001	 -1.403042E+001	 -1.708068E+001	 -2.009925E+001	 -2.330122E+001	 -2.708540E+001	 -3.075366E+001
         1.7000	  2.595180E+001	  2.454642E+001	  2.273333E+001	  2.121967E+001	  1.999662E+001	  1.887653E+001	  1.754748E+001	  1.639534E+001	  1.593589E+001	  1.627389E+001	  1.698903E+001	  1.790611E+001	  1.903492E+001	  1.913230E+001	  1.814263E+001	  1.659639E+001	  1.442638E+001	  1.213282E+001	  9.806348E+000	  7.365089E+000	  5.130684E+000	  2.970440E+000	  6.459629E-001	 -1.478557E+000	 -3.676721E+000	 -6.057849E+000	 -8.650293E+000	 -1.120461E+001	 -1.399528E+001	 -1.704753E+001	 -2.006778E+001	 -2.327055E+001	 -2.705405E+001	 -3.072015E+001
         1.8000	  2.564408E+001	  2.423030E+001	  2.242996E+001	  2.090448E+001	  1.965618E+001	  1.852363E+001	  1.723271E+001	  1.614086E+001	  1.573303E+001	  1.615220E+001	  1.697224E+001	  1.794588E+001	  1.900304E+001	  1.916810E+001	  1.835600E+001	  1.693520E+001	  1.496415E+001	  1.290682E+001	  1.080645E+001	  8.566143E+000	  6.463658E+000	  4.376519E+000	  2.062964E+000	 -9.580067E-002	 -2.358365E+000	 -4.832811E+000	 -7.545207E+000	 -1.022723E+001	 -1.315815E+001	 -1.635390E+001	 -1.949800E+001	 -2.280847E+001	 -2.668882E+001	 -3.042265E+001
         1.9000	  2.459433E+001	  2.335365E+001	  2.170252E+001	  2.023839E+001	  1.903974E+001	  1.800850E+001	  1.696594E+001	  1.620781E+001	  1.615934E+001	  1.687199E+001	  1.792648E+001	  1.906132E+001	  1.994149E+001	  1.998209E+001	  1.921312E+001	  1.786671E+001	  1.606729E+001	  1.423850E+001	  1.233937E+001	  1.026916E+001	  8.275790E+000	  6.239770E+000	  3.916212E+000	  1.705758E+000	 -6.390292E-001	 -3.227436E+000	 -6.086055E+000	 -8.927365E+000	 -1.204016E+001	 -1.543150E+001	 -1.875315E+001	 -2.222475E+001	 -2.625446E+001	 -3.009369E+001
         2.0000	  2.380321E+001	  2.262025E+001	  2.104892E+001	  1.954995E+001	  1.833831E+001	  1.747689E+001	  1.696014E+001	  1.679692E+001	  1.694051E+001	  1.737391E+001	  1.821479E+001	  1.925974E+001	  2.004305E+001	  2.003098E+001	  1.921756E+001	  1.797066E+001	  1.636020E+001	  1.468579E+001	  1.292923E+001	  1.098498E+001	  9.091583E+000	  7.124034E+000	  4.848792E+000	  2.672313E+000	  3.572038E-001	 -2.207489E+000	 -5.054589E+000	 -7.903166E+000	 -1.104844E+001	 -1.450554E+001	 -1.791932E+001	 -2.150821E+001	 -2.568500E+001	 -2.965870E+001
         2.1000	  2.253586E+001	  2.146691E+001	  1.996270E+001	  1.844686E+001	  1.735062E+001	  1.681630E+001	  1.669170E+001	  1.678308E+001	  1.695808E+001	  1.740146E+001	  1.831461E+001	  1.936162E+001	  2.014603E+001	  2.018069E+001	  1.942016E+001	  1.812210E+001	  1.647785E+001	  1.481635E+001	  1.303666E+001	  1.107631E+001	  9.186021E+000	  7.218249E+000	  4.937758E+000	  2.752788E+000	  4.245313E-001	 -2.160962E+000	 -5.038143E+000	 -7.922566E+000	 -1.111248E+001	 -1.462240E+001	 -1.808899E+001	 -2.173006E+001	 -2.595823E+001	 -2.996815E+001
         2.2000	  2.033339E+001	  1.987653E+001	  1.963288E+001	  1.883481E+001	  1.742083E+001	  1.648716E+001	  1.628734E+001	  1.640214E+001	  1.674893E+001	  1.768717E+001	  1.886027E+001	  1.986502E+001	  2.044117E+001	  2.032923E+001	  1.953246E+001	  1.819147E+001	  1.651837E+001	  1.483857E+001	  1.299507E+001	  1.103196E+001	  9.141181E+000	  7.170231E+000	  4.883779E+000	  2.693098E+000	  3.581582E-001	 -2.236172E+000	 -5.124075E+000	 -8.020175E+000	 -1.122537E+001	 -1.475663E+001	 -1.824974E+001	 -2.192381E+001	 -2.619380E+001	 -3.024214E+001
         2.3000	  1.646022E+001	  1.521500E+001	  1.409448E+001	  1.347832E+001	  1.345637E+001	  1.397485E+001	  1.492786E+001	  1.571747E+001	  1.648145E+001	  1.762684E+001	  1.889289E+001	  1.997019E+001	  2.048634E+001	  2.025951E+001	  1.935137E+001	  1.795967E+001	  1.626121E+001	  1.453956E+001	  1.263365E+001	  1.066713E+001	  8.770946E+000	  6.792324E+000	  4.497822E+000	  2.300413E+000	 -4.270558E-002	 -2.647059E+000	 -5.545165E+000	 -8.449499E+000	 -1.166129E+001	 -1.519667E+001	 -1.869036E+001	 -2.236091E+001	 -2.662103E+001	 -3.065441E+001
         2.4000	  1.725263E+001	  1.580957E+001	  1.437149E+001	  1.328480E+001	  1.262767E+001	  1.254833E+001	  1.310130E+001	  1.407800E+001	  1.541946E+001	  1.696573E+001	  1.838074E+001	  1.958528E+001	  2.027548E+001	  2.013488E+001	  1.921321E+001	  1.777101E+001	  1.604820E+001	  1.426273E+001	  1.235888E+001	  1.039615E+001	  8.499408E+000	  6.518851E+000	  4.220288E+000	  2.013504E+000	 -3.459504E-001	 -2.972936E+000	 -5.898390E+000	 -8.829923E+000	 -1.206862E+001	 -1.562583E+001	 -1.912923E+001	 -2.279440E+001	 -2.702779E+001	 -3.101923E+001
         2.5000	  1.817266E+001	  1.656761E+001	  1.496500E+001	  1.377411E+001	  1.301888E+001	  1.287057E+001	  1.339428E+001	  1.436038E+001	  1.568179E+001	  1.720325E+001	  1.860698E+001	  1.983289E+001	  2.058039E+001	  2.049535E+001	  1.964454E+001	  1.827007E+001	  1.647953E+001	  1.475232E+001	  1.289082E+001	  1.095205E+001	  9.075552E+000	  7.113413E+000	  4.825376E+000	  2.618285E+000	  2.523804E-001	 -2.386239E+000	 -5.329852E+000	 -8.285233E+000	 -1.155679E+001	 -1.515745E+001	 -1.870981E+001	 -2.243019E+001	 -2.672763E+001	 -3.077451E+001
         2.6000	  1.901417E+001	  1.738569E+001	  1.574694E+001	  1.447487E+001	  1.356506E+001	  1.324851E+001	  1.363718E+001	  1.452189E+001	  1.577835E+001	  1.725805E+001	  1.865584E+001	  1.990339E+001	  2.071415E+001	  2.073592E+001	  2.003224E+001	  1.878791E+001	  1.702703E+001	  1.536109E+001	  1.356329E+001	  1.165215E+001	  9.800455E+000	  7.863255E+000	  5.599149E+000	  3.411351E+000	  1.064510E+000	 -1.554924E+000	 -4.481762E+000	 -7.427168E+000	 -1.069778E+001	 -1.431215E+001	 -1.789522E+001	 -2.166661E+001	 -2.604403E+001	 -3.017969E+001
         2.7000	  1.954545E+001	  1.790165E+001	  1.625555E+001	  1.495564E+001	  1.395168E+001	  1.350151E+001	  1.377267E+001	  1.458909E+001	  1.580707E+001	  1.724989E+001	  1.863029E+001	  1.986027E+001	  2.073468E+001	  2.079343E+001	  2.015421E+001	  1.898148E+001	  1.724921E+001	  1.558234E+001	  1.382525E+001	  1.191078E+001	  1.006155E+001	  8.134047E+000	  5.886398E+000	  3.717502E+000	  1.394369E+000	 -1.194892E+000	 -4.085828E+000	 -6.995017E+000	 -1.022729E+001	 -1.380411E+001	 -1.735785E+001	 -2.110996E+001	 -2.548298E+001	 -2.963294E+001
         2.8000	  2.408282E+001	  2.336921E+001	  2.198456E+001	  2.079054E+001	  1.988557E+001	  1.917230E+001	  1.845168E+001	  1.782196E+001	  1.768363E+001	  1.815528E+001	  1.901301E+001	  2.010072E+001	  2.104637E+001	  2.116312E+001	  2.048076E+001	  1.924304E+001	  1.750935E+001	  1.583508E+001	  1.408046E+001	  1.217248E+001	  1.031781E+001	  8.386446E+000	  6.134907E+000	  3.960929E+000	  1.630405E+000	 -9.684748E-001	 -3.870922E+000	 -6.791658E+000	 -1.003518E+001	 -1.362039E+001	 -1.717645E+001	 -2.092368E+001	 -2.528243E+001	 -2.941343E+001
         2.9000	  2.565018E+001	  2.502412E+001	  2.366893E+001	  2.246609E+001	  2.152670E+001	  2.072128E+001	  1.984349E+001	  1.906156E+001	  1.873389E+001	  1.902059E+001	  1.974692E+001	  2.074639E+001	  2.160230E+001	  2.162395E+001	  2.082198E+001	  1.950249E+001	  1.777357E+001	  1.610808E+001	  1.433771E+001	  1.242622E+001	  1.055996E+001	  8.613755E+000	  6.342057E+000	  4.147603E+000	  1.795256E+000	 -8.263246E-001	 -3.750198E+000	 -6.686883E+000	 -9.940330E+000	 -1.352614E+001	 -1.707227E+001	 -2.079947E+001	 -2.512717E+001	 -2.922702E+001
         3.0000	  2.675845E+001	  2.538578E+001	  2.369550E+001	  2.227571E+001	  2.104425E+001	  1.984835E+001	  1.863394E+001	  1.780529E+001	  1.758407E+001	  1.804916E+001	  1.893820E+001	  2.007006E+001	  2.099683E+001	  2.111742E+001	  2.049745E+001	  1.928775E+001	  1.760523E+001	  1.598780E+001	  1.426757E+001	  1.238252E+001	  1.053053E+001	  8.593078E+000	  6.327968E+000	  4.136062E+000	  1.782121E+000	 -8.463516E-001	 -3.783920E+000	 -6.740074E+000	 -1.002062E+001	 -1.364101E+001	 -1.722334E+001	 -2.098710E+001	 -2.535063E+001	 -2.947453E+001
         3.1000	  2.567733E+001	  2.520521E+001	  2.397926E+001	  2.273365E+001	  2.175162E+001	  2.095693E+001	  2.013764E+001	  1.938899E+001	  1.907045E+001	  1.936960E+001	  2.010228E+001	  2.109133E+001	  2.183413E+001	  2.179432E+001	  2.101919E+001	  1.981614E+001	  1.825276E+001	  1.671769E+001	  1.507890E+001	  1.326809E+001	  1.147084E+001	  9.564945E+000	  7.314863E+000	  5.128824E+000	  2.777138E+000	  1.467764E-001	 -2.799524E+000	 -5.773357E+000	 -9.086526E+000	 -1.276164E+001	 -1.641905E+001	 -2.028301E+001	 -2.478323E+001	 -2.904470E+001
         3.2000	  2.512135E+001	  2.399012E+001	  2.243842E+001	  2.096986E+001	  1.973602E+001	  1.874682E+001	  1.796809E+001	  1.754998E+001	  1.774497E+001	  1.853757E+001	  1.956216E+001	  2.061478E+001	  2.134442E+001	  2.131917E+001	  2.062584E+001	  1.939165E+001	  1.771590E+001	  1.610566E+001	  1.439198E+001	  1.250687E+001	  1.065050E+001	  8.702865E+000	  6.420720E+000	  4.210689E+000	  1.837594E+000	 -8.110245E-001	 -3.769330E+000	 -6.744526E+000	 -1.004429E+001	 -1.368387E+001	 -1.728339E+001	 -2.106341E+001	 -2.544345E+001	 -2.958054E+001
         3.3000	  2.185148E+001	  2.096383E+001	  1.960777E+001	  1.841625E+001	  1.764513E+001	  1.715033E+001	  1.675950E+001	  1.659350E+001	  1.699546E+001	  1.791871E+001	  1.892373E+001	  1.984351E+001	  2.053355E+001	  2.046090E+001	  1.964821E+001	  1.834751E+001	  1.658004E+001	  1.484795E+001	  1.303126E+001	  1.107347E+001	  9.173796E+000	  7.208277E+000	  4.934317E+000	  2.753431E+000	  4.292132E-001	 -2.147053E+000	 -5.006085E+000	 -7.865447E+000	 -1.102247E+001	 -1.449389E+001	 -1.792448E+001	 -2.153440E+001	 -2.573943E+001	 -2.974219E+001
         3.4000	  2.145278E+001	  2.049702E+001	  1.866466E+001	  1.705447E+001	  1.605521E+001	  1.566035E+001	  1.536908E+001	  1.528903E+001	  1.595676E+001	  1.714221E+001	  1.830358E+001	  1.914480E+001	  1.955748E+001	  1.942199E+001	  1.869448E+001	  1.753439E+001	  1.592299E+001	  1.420819E+001	  1.240446E+001	  1.044827E+001	  8.536008E+000	  6.558438E+000	  4.284889E+000	  2.119256E+000	 -1.771899E-001	 -2.712328E+000	 -5.515675E+000	 -8.311398E+000	 -1.139228E+001	 -1.477748E+001	 -1.812541E+001	 -2.165612E+001	 -2.578382E+001	 -2.973004E+001
         3.5000	  2.084185E+001	  1.998665E+001	  1.847121E+001	  1.682380E+001	  1.575862E+001	  1.534972E+001	  1.524209E+001	  1.530661E+001	  1.596429E+001	  1.711676E+001	  1.824729E+001	  1.901317E+001	  1.925296E+001	  1.907328E+001	  1.840940E+001	  1.727320E+001	  1.578650E+001	  1.416139E+001	  1.237829E+001	  1.043513E+001	  8.522727E+000	  6.535034E+000	  4.247658E+000	  2.073807E+000	 -2.267421E-001	 -2.764001E+000	 -5.568046E+000	 -8.362784E+000	 -1.144056E+001	 -1.482006E+001	 -1.816040E+001	 -2.168180E+001	 -2.579817E+001	 -2.973431E+001
         3.6000	  2.285788E+001	  2.261138E+001	  2.158227E+001	  2.017171E+001	  1.914556E+001	  1.841944E+001	  1.771835E+001	  1.704041E+001	  1.683440E+001	  1.729179E+001	  1.814618E+001	  1.904266E+001	  1.954468E+001	  1.948342E+001	  1.890960E+001	  1.786841E+001	  1.638925E+001	  1.486441E+001	  1.313160E+001	  1.123859E+001	  9.378055E+000	  7.436154E+000	  5.186725E+000	  3.037269E+000	  7.527656E-001	 -1.779077E+000	 -4.593120E+000	 -7.414304E+000	 -1.053905E+001	 -1.398889E+001	 -1.741368E+001	 -2.103390E+001	 -2.526911E+001	 -2.931321E+001
         3.7000	  2.563040E+001	  2.458815E+001	  2.330325E+001	  2.195544E+001	  2.045033E+001	  1.914721E+001	  1.809314E+001	  1.727033E+001	  1.672069E+001	  1.690151E+001	  1.765267E+001	  1.866986E+001	  1.967807E+001	  2.000455E+001	  1.953088E+001	  1.839441E+001	  1.685063E+001	  1.531659E+001	  1.360929E+001	  1.174174E+001	  9.916143E+000	  8.009107E+000	  5.790849E+000	  3.660239E+000	  1.384929E+000	 -1.148886E+000	 -3.979405E+000	 -6.830961E+000	 -1.000323E+001	 -1.351847E+001	 -1.701626E+001	 -2.071586E+001	 -2.503827E+001	 -2.915316E+001
         3.8000	  2.637274E+001	  2.491812E+001	  2.303948E+001	  2.139457E+001	  1.994567E+001	  1.858649E+001	  1.724705E+001	  1.622918E+001	  1.585393E+001	  1.624011E+001	  1.704940E+001	  1.800603E+001	  1.894010E+001	  1.924714E+001	  1.881270E+001	  1.769663E+001	  1.612359E+001	  1.452950E+001	  1.279514E+001	  1.090920E+001	  9.079674E+000	  7.179675E+000	  4.983918E+000	  2.884565E+000	  6.489009E-001	 -1.836217E+000	 -4.609464E+000	 -7.402412E+000	 -1.051028E+001	 -1.395703E+001	 -1.739127E+001	 -2.102995E+001	 -2.529040E+001	 -2.935559E+001
         3.9000	  2.610454E+001	  2.471059E+001	  2.287498E+001	  2.126984E+001	  1.987853E+001	  1.860010E+001	  1.732680E+001	  1.628804E+001	  1.585691E+001	  1.619450E+001	  1.696197E+001	  1.784337E+001	  1.867545E+001	  1.887837E+001	  1.843421E+001	  1.716672E+001	  1.523292E+001	  1.330887E+001	  1.130635E+001	  9.120615E+000	  7.064766E+000	  5.006901E+000	  2.706196E+000	  5.451642E-001	 -1.731834E+000	 -4.237217E+000	 -7.001773E+000	 -9.751736E+000	 -1.277096E+001	 -1.607207E+001	 -1.931969E+001	 -2.272954E+001	 -2.670519E+001	 -3.050615E+001
         4.0000	  2.499958E+001	  2.370883E+001	  2.197580E+001	  2.050802E+001	  1.927152E+001	  1.812425E+001	  1.696200E+001	  1.609305E+001	  1.592305E+001	  1.650588E+001	  1.738564E+001	  1.837198E+001	  1.936696E+001	  1.938501E+001	  1.838908E+001	  1.675903E+001	  1.458492E+001	  1.235173E+001	  9.987173E+000	  7.519231E+000	  5.279759E+000	  3.093655E+000	  7.183925E-001	 -1.460267E+000	 -3.716817E+000	 -6.165234E+000	 -8.831854E+000	 -1.145393E+001	 -1.430787E+001	 -1.741359E+001	 -2.047015E+001	 -2.369529E+001	 -2.748839E+001	 -3.115173E+001
         4.1000	  2.323370E+001	  2.213989E+001	  2.060413E+001	  1.936205E+001	  1.836648E+001	  1.742644E+001	  1.644355E+001	  1.578481E+001	  1.584410E+001	  1.659679E+001	  1.758920E+001	  1.866291E+001	  1.959157E+001	  1.948401E+001	  1.836815E+001	  1.668528E+001	  1.462545E+001	  1.242938E+001	  1.002782E+001	  7.605537E+000	  5.389818E+000	  3.202408E+000	  8.117036E-001	 -1.381828E+000	 -3.657606E+000	 -6.134162E+000	 -8.836645E+000	 -1.149585E+001	 -1.438968E+001	 -1.753556E+001	 -2.062609E+001	 -2.387965E+001	 -2.769619E+001	 -3.137307E+001
         4.2000	  2.109038E+001	  2.157825E+001	  2.140321E+001	  2.077544E+001	  2.000562E+001	  1.915823E+001	  1.848046E+001	  1.791281E+001	  1.750447E+001	  1.752525E+001	  1.799474E+001	  1.867481E+001	  1.926310E+001	  1.907534E+001	  1.805617E+001	  1.644683E+001	  1.448680E+001	  1.242861E+001	  1.003353E+001	  7.643044E+000	  5.434854E+000	  3.240581E+000	  8.398291E-001	 -1.354354E+000	 -3.623675E+000	 -6.091454E+000	 -8.785891E+000	 -1.144040E+001	 -1.433396E+001	 -1.748565E+001	 -2.058727E+001	 -2.385645E+001	 -2.769347E+001	 -3.138963E+001
         4.3000	  1.572988E+001	  1.592174E+001	  1.656007E+001	  1.728336E+001	  1.751310E+001	  1.733433E+001	  1.712517E+001	  1.696110E+001	  1.708254E+001	  1.757182E+001	  1.830120E+001	  1.911479E+001	  1.963983E+001	  1.929912E+001	  1.823338E+001	  1.669323E+001	  1.476135E+001	  1.278165E+001	  1.049190E+001	  8.159767E+000	  5.989519E+000	  3.812549E+000	  1.402946E+000	 -8.170010E-001	 -3.119440E+000	 -5.624486E+000	 -8.359557E+000	 -1.105308E+001	 -1.398690E+001	 -1.717891E+001	 -2.031634E+001	 -2.361923E+001	 -2.749101E+001	 -3.121630E+001
         4.4000	  2.331529E+001	  2.230214E+001	  2.108197E+001	  2.028955E+001	  1.958325E+001	  1.859031E+001	  1.750427E+001	  1.686076E+001	  1.679788E+001	  1.718349E+001	  1.781946E+001	  1.862298E+001	  1.926645E+001	  1.905491E+001	  1.804824E+001	  1.660337E+001	  1.470683E+001	  1.274296E+001	  1.054662E+001	  8.246019E+000	  6.105405E+000	  3.960198E+000	  1.584509E+000	 -6.093974E-001	 -2.889467E+000	 -5.374474E+000	 -8.094162E+000	 -1.077990E+001	 -1.371283E+001	 -1.691105E+001	 -2.005964E+001	 -2.337741E+001	 -2.726827E+001	 -3.101190E+001
         4.5000	  2.467795E+001	  2.338218E+001	  2.166071E+001	  2.022102E+001	  1.902657E+001	  1.794026E+001	  1.686744E+001	  1.611099E+001	  1.605301E+001	  1.665083E+001	  1.745335E+001	  1.831907E+001	  1.909254E+001	  1.897667E+001	  1.801431E+001	  1.654472E+001	  1.454271E+001	  1.242581E+001	  1.016290E+001	  7.770546E+000	  5.574518E+000	  3.409665E+000	  1.049982E+000	 -1.109156E+000	 -3.341542E+000	 -5.765373E+000	 -8.412703E+000	 -1.102689E+001	 -1.388644E+001	 -1.701454E+001	 -2.010662E+001	 -2.337858E+001	 -2.723165E+001	 -3.095161E+001
         4.6000	  2.247648E+001	  2.084856E+001	  1.921057E+001	  1.797032E+001	  1.683632E+001	  1.568690E+001	  1.479913E+001	  1.464008E+001	  1.524721E+001	  1.634484E+001	  1.743658E+001	  1.848959E+001	  1.943055E+001	  1.935118E+001	  1.835998E+001	  1.684676E+001	  1.476136E+001	  1.254986E+001	  1.026126E+001	  7.838031E+000	  5.621611E+000	  3.447128E+000	  1.079071E+000	 -1.094675E+000	 -3.347438E+000	 -5.792434E+000	 -8.457353E+000	 -1.108182E+001	 -1.394422E+001	 -1.706624E+001	 -2.014489E+001	 -2.339747E+001	 -2.722471E+001	 -3.091982E+001
         4.7000	  2.289843E+001	  2.124453E+001	  1.956130E+001	  1.828223E+001	  1.712840E+001	  1.595987E+001	  1.497095E+001	  1.468750E+001	  1.514730E+001	  1.614532E+001	  1.717936E+001	  1.816437E+001	  1.894806E+001	  1.888049E+001	  1.809273E+001	  1.668871E+001	  1.458140E+001	  1.236256E+001	  1.009803E+001	  7.673016E+000	  5.438374E+000	  3.256147E+000	  8.942724E-001	 -1.269954E+000	 -3.511511E+000	 -5.940743E+000	 -8.584162E+000	 -1.118423E+001	 -1.401759E+001	 -1.710651E+001	 -2.015265E+001	 -2.337259E+001	 -2.716515E+001	 -3.083133E+001
         4.8000	  2.282990E+001	  2.122945E+001	  1.958239E+001	  1.832554E+001	  1.720404E+001	  1.608605E+001	  1.513970E+001	  1.488501E+001	  1.536940E+001	  1.639096E+001	  1.744701E+001	  1.842746E+001	  1.925602E+001	  1.919289E+001	  1.838629E+001	  1.698880E+001	  1.486121E+001	  1.267790E+001	  1.044900E+001	  8.068047E+000	  5.858423E+000	  3.690877E+000	  1.323484E+000	 -8.633131E-001	 -3.138008E+000	 -5.606509E+000	 -8.291299E+000	 -1.092790E+001	 -1.379450E+001	 -1.691102E+001	 -1.997619E+001	 -2.320916E+001	 -2.701071E+001	 -3.068175E+001
         4.9000	  2.283122E+001	  2.117306E+001	  1.948527E+001	  1.821283E+001	  1.709592E+001	  1.601100E+001	  1.514057E+001	  1.496545E+001	  1.550629E+001	  1.656622E+001	  1.765424E+001	  1.864207E+001	  1.947046E+001	  1.942887E+001	  1.861114E+001	  1.723367E+001	  1.515790E+001	  1.307625E+001	  1.093193E+001	  8.640849E+000	  6.495020E+000	  4.366160E+000	  2.004172E+000	 -2.029978E-001	 -2.514731E+000	 -5.035031E+000	 -7.784034E+000	 -1.048694E+001	 -1.342466E+001	 -1.661282E+001	 -1.973968E+001	 -2.302723E+001	 -2.688023E+001	 -3.059043E+001
         5.0000	  2.250526E+001	  2.086014E+001	  1.920203E+001	  1.797233E+001	  1.691873E+001	  1.595515E+001	  1.532308E+001	  1.540720E+001	  1.615683E+001	  1.730276E+001	  1.846238E+001	  1.955373E+001	  2.045011E+001	  2.037224E+001	  1.945001E+001	  1.797889E+001	  1.590447E+001	  1.390631E+001	  1.184237E+001	  9.627679E+000	  7.546744E+000	  5.453223E+000	  3.083848E+000	  8.370296E-001	 -1.538991E+000	 -4.150407E+000	 -7.018727E+000	 -9.852795E+000	 -1.293949E+001	 -1.628463E+001	 -1.954923E+001	 -2.295631E+001	 -2.691389E+001	 -3.069305E+001