
Predictions were generated on 17-Apr-2019 at 09:56:21 using AA 
 AeroAcoustics (v1.00.00, 18-Aug-2016)
     Time           	F10Obs1Bl1          	F10Obs1Bl1          	F10Obs1Bl1          	F10Obs1Bl1          	F10Obs1Bl2          	F10Obs1Bl2          	F10Obs1Bl2          	F10Obs1Bl2          	F10Obs1Bl3          	F10Obs1Bl3          	F10Obs1Bl3          	F10Obs1Bl3          	F12.5Obs1Bl1        	F12.5Obs1Bl1        	F12.5Obs1Bl1        	F12.5Obs1Bl1        	F12.5Obs1Bl2        	F12.5Obs1Bl2        	F12.5Obs1Bl2        	F12.5Obs1Bl2        	F12.5Obs1Bl3        	F12.5Obs1Bl3        	F12.5Obs1Bl3        	F12.5Obs1Bl3        	F16Obs1Bl1          	F16Obs1Bl1          	F16Obs1Bl1          	F16Obs1Bl1          	F16Obs1Bl2          	F16Obs1Bl2          	F16Obs1Bl2          	F16Obs1Bl2          	F16Obs1Bl3          	F16Obs1Bl3          	F16Obs1Bl3          	F16Obs1Bl3          	F20Obs1Bl1          	F20Obs1Bl1          	F20Obs1Bl1          	F20Obs1Bl1          	F20Obs1Bl2          	F20Obs1Bl2          	F20Obs1Bl2          	F20Obs1Bl2          	F20Obs1Bl3          	F20Obs1Bl3          	F20Obs1Bl3          	F20Obs1Bl3          	F25Obs1Bl1          	F25Obs1Bl1          	F25Obs1Bl1          	F25Obs1Bl1          	F25Obs1Bl2          	F25Obs1Bl2          	F25Obs1Bl2          	F25Obs1Bl2          	F25Obs1Bl3          	F25Obs1Bl3          	F25Obs1Bl3          	F25Obs1Bl3          	F31.5Obs1Bl1        	F31.5Obs1Bl1        	F31.5Obs1Bl1        	F31.5Obs1Bl1        	F31.5Obs1Bl2        	F31.5Obs1Bl2        	F31.5Obs1Bl2        	F31.5Obs1Bl2        	F31.5Obs1Bl3        	F31.5Obs1Bl3        	F31.5Obs1Bl3        	F31.5Obs1Bl3        	F40Obs1Bl1          	F40Obs1Bl1          	F40Obs1Bl1          	F40Obs1Bl1          	F40Obs1Bl2          	F40Obs1Bl2          	F40Obs1Bl2          	F40Obs1Bl2          	F40Obs1Bl3          	F40Obs1Bl3          	F40Obs1Bl3          	F40Obs1Bl3          	F50Obs1Bl1          	F50Obs1Bl1          	F50Obs1Bl1          	F50Obs1Bl1          	F50Obs1Bl2          	F50Obs1Bl2          	F50Obs1Bl2          	F50Obs1Bl2          	F50Obs1Bl3          	F50Obs1Bl3          	F50Obs1Bl3          	F50Obs1Bl3          	F63Obs1Bl1          	F63Obs1Bl1          	F63Obs1Bl1          	F63Obs1Bl1          	F63Obs1Bl2          	F63Obs1Bl2          	F63Obs1Bl2          	F63Obs1Bl2          	F63Obs1Bl3          	F63Obs1Bl3          	F63Obs1Bl3          	F63Obs1Bl3          	F80Obs1Bl1          	F80Obs1Bl1          	F80Obs1Bl1          	F80Obs1Bl1          	F80Obs1Bl2          	F80Obs1Bl2          	F80Obs1Bl2          	F80Obs1Bl2          	F80Obs1Bl3          	F80Obs1Bl3          	F80Obs1Bl3          	F80Obs1Bl3          	F100Obs1Bl1         	F100Obs1Bl1         	F100Obs1Bl1         	F100Obs1Bl1         	F100Obs1Bl2         	F100Obs1Bl2         	F100Obs1Bl2         	F100Obs1Bl2         	F100Obs1Bl3         	F100Obs1Bl3         	F100Obs1Bl3         	F100Obs1Bl3         	F125Obs1Bl1         	F125Obs1Bl1         	F125Obs1Bl1         	F125Obs1Bl1         	F125Obs1Bl2         	F125Obs1Bl2         	F125Obs1Bl2         	F125Obs1Bl2         	F125Obs1Bl3         	F125Obs1Bl3         	F125Obs1Bl3         	F125Obs1Bl3         	F160Obs1Bl1         	F160Obs1Bl1         	F160Obs1Bl1         	F160Obs1Bl1         	F160Obs1Bl2         	F160Obs1Bl2         	F160Obs1Bl2         	F160Obs1Bl2         	F160Obs1Bl3         	F160Obs1Bl3         	F160Obs1Bl3         	F160Obs1Bl3         	F200Obs1Bl1         	F200Obs1Bl1         	F200Obs1Bl1         	F200Obs1Bl1         	F200Obs1Bl2         	F200Obs1Bl2         	F200Obs1Bl2         	F200Obs1Bl2         	F200Obs1Bl3         	F200Obs1Bl3         	F200Obs1Bl3         	F200Obs1Bl3         	F250Obs1Bl1         	F250Obs1Bl1         	F250Obs1Bl1         	F250Obs1Bl1         	F250Obs1Bl2         	F250Obs1Bl2         	F250Obs1Bl2         	F250Obs1Bl2         	F250Obs1Bl3         	F250Obs1Bl3         	F250Obs1Bl3         	F250Obs1Bl3         	F315Obs1Bl1         	F315Obs1Bl1         	F315Obs1Bl1         	F315Obs1Bl1         	F315Obs1Bl2         	F315Obs1Bl2         	F315Obs1Bl2         	F315Obs1Bl2         	F315Obs1Bl3         	F315Obs1Bl3         	F315Obs1Bl3         	F315Obs1Bl3         	F400Obs1Bl1         	F400Obs1Bl1         	F400Obs1Bl1         	F400Obs1Bl1         	F400Obs1Bl2         	F400Obs1Bl2         	F400Obs1Bl2         	F400Obs1Bl2         	F400Obs1Bl3         	F400Obs1Bl3         	F400Obs1Bl3         	F400Obs1Bl3         	F500Obs1Bl1         	F500Obs1Bl1         	F500Obs1Bl1         	F500Obs1Bl1         	F500Obs1Bl2         	F500Obs1Bl2         	F500Obs1Bl2         	F500Obs1Bl2         	F500Obs1Bl3         	F500Obs1Bl3         	F500Obs1Bl3         	F500Obs1Bl3         	F630Obs1Bl1         	F630Obs1Bl1         	F630Obs1Bl1         	F630Obs1Bl1         	F630Obs1Bl2         	F630Obs1Bl2         	F630Obs1Bl2         	F630Obs1Bl2         	F630Obs1Bl3         	F630Obs1Bl3         	F630Obs1Bl3         	F630Obs1Bl3         	F800Obs1Bl1         	F800Obs1Bl1         	F800Obs1Bl1         	F800Obs1Bl1         	F800Obs1Bl2         	F800Obs1Bl2         	F800Obs1Bl2         	F800Obs1Bl2         	F800Obs1Bl3         	F800Obs1Bl3         	F800Obs1Bl3         	F800Obs1Bl3         	F1000Obs1Bl1        	F1000Obs1Bl1        	F1000Obs1Bl1        	F1000Obs1Bl1        	F1000Obs1Bl2        	F1000Obs1Bl2        	F1000Obs1Bl2        	F1000Obs1Bl2        	F1000Obs1Bl3        	F1000Obs1Bl3        	F1000Obs1Bl3        	F1000Obs1Bl3        	F1250Obs1Bl1        	F1250Obs1Bl1        	F1250Obs1Bl1        	F1250Obs1Bl1        	F1250Obs1Bl2        	F1250Obs1Bl2        	F1250Obs1Bl2        	F1250Obs1Bl2        	F1250Obs1Bl3        	F1250Obs1Bl3        	F1250Obs1Bl3        	F1250Obs1Bl3        	F1600Obs1Bl1        	F1600Obs1Bl1        	F1600Obs1Bl1        	F1600Obs1Bl1        	F1600Obs1Bl2        	F1600Obs1Bl2        	F1600Obs1Bl2        	F1600Obs1Bl2        	F1600Obs1Bl3        	F1600Obs1Bl3        	F1600Obs1Bl3        	F1600Obs1Bl3        	F2000Obs1Bl1        	F2000Obs1Bl1        	F2000Obs1Bl1        	F2000Obs1Bl1        	F2000Obs1Bl2        	F2000Obs1Bl2        	F2000Obs1Bl2        	F2000Obs1Bl2        	F2000Obs1Bl3        	F2000Obs1Bl3        	F2000Obs1Bl3        	F2000Obs1Bl3        	F2500Obs1Bl1        	F2500Obs1Bl1        	F2500Obs1Bl1        	F2500Obs1Bl1        	F2500Obs1Bl2        	F2500Obs1Bl2        	F2500Obs1Bl2        	F2500Obs1Bl2        	F2500Obs1Bl3        	F2500Obs1Bl3        	F2500Obs1Bl3        	F2500Obs1Bl3        	F3150Obs1Bl1        	F3150Obs1Bl1        	F3150Obs1Bl1        	F3150Obs1Bl1        	F3150Obs1Bl2        	F3150Obs1Bl2        	F3150Obs1Bl2        	F3150Obs1Bl2        	F3150Obs1Bl3        	F3150Obs1Bl3        	F3150Obs1Bl3        	F3150Obs1Bl3        	F4000Obs1Bl1        	F4000Obs1Bl1        	F4000Obs1Bl1        	F4000Obs1Bl1        	F4000Obs1Bl2        	F4000Obs1Bl2        	F4000Obs1Bl2        	F4000Obs1Bl2        	F4000Obs1Bl3        	F4000Obs1Bl3        	F4000Obs1Bl3        	F4000Obs1Bl3        	F5000Obs1Bl1        	F5000Obs1Bl1        	F5000Obs1Bl1        	F5000Obs1Bl1        	F5000Obs1Bl2        	F5000Obs1Bl2        	F5000Obs1Bl2        	F5000Obs1Bl2        	F5000Obs1Bl3        	F5000Obs1Bl3        	F5000Obs1Bl3        	F5000Obs1Bl3        	F6300Obs1Bl1        	F6300Obs1Bl1        	F6300Obs1Bl1        	F6300Obs1Bl1        	F6300Obs1Bl2        	F6300Obs1Bl2        	F6300Obs1Bl2        	F6300Obs1Bl2        	F6300Obs1Bl3        	F6300Obs1Bl3        	F6300Obs1Bl3        	F6300Obs1Bl3        	F8000Obs1Bl1        	F8000Obs1Bl1        	F8000Obs1Bl1        	F8000Obs1Bl1        	F8000Obs1Bl2        	F8000Obs1Bl2        	F8000Obs1Bl2        	F8000Obs1Bl2        	F8000Obs1Bl3        	F8000Obs1Bl3        	F8000Obs1Bl3        	F8000Obs1Bl3        	F10000Obs1Bl1       	F10000Obs1Bl1       	F10000Obs1Bl1       	F10000Obs1Bl1       	F10000Obs1Bl2       	F10000Obs1Bl2       	F10000Obs1Bl2       	F10000Obs1Bl2       	F10000Obs1Bl3       	F10000Obs1Bl3       	F10000Obs1Bl3       	F10000Obs1Bl3       	F12500Obs1Bl1       	F12500Obs1Bl1       	F12500Obs1Bl1       	F12500Obs1Bl1       	F12500Obs1Bl2       	F12500Obs1Bl2       	F12500Obs1Bl2       	F12500Obs1Bl2       	F12500Obs1Bl3       	F12500Obs1Bl3       	F12500Obs1Bl3       	F12500Obs1Bl3       	F16000Obs1Bl1       	F16000Obs1Bl1       	F16000Obs1Bl1       	F16000Obs1Bl1       	F16000Obs1Bl2       	F16000Obs1Bl2       	F16000Obs1Bl2       	F16000Obs1Bl2       	F16000Obs1Bl3       	F16000Obs1Bl3       	F16000Obs1Bl3       	F16000Obs1Bl3       	F20000Obs1Bl1       	F20000Obs1Bl1       	F20000Obs1Bl1       	F20000Obs1Bl1       	F20000Obs1Bl2       	F20000Obs1Bl2       	F20000Obs1Bl2       	F20000Obs1Bl2       	F20000Obs1Bl3       	F20000Obs1Bl3       	F20000Obs1Bl3       	F20000Obs1Bl3       
      (s)           	SPowLev             	Coord1              	Coord2              	Coord3              	SPowLev             	Coord1              	Coord2              	Coord3              	SPowLev             	Coord1              	Coord2              	Coord3              	SPowLev             	Coord1              	Coord2              	Coord3              	SPowLev             	Coord1              	Coord2              	Coord3              	SPowLev             	Coord1              	Coord2              	Coord3              	SPowLev             	Coord1              	Coord2              	Coord3              	SPowLev             	Coord1              	Coord2              	Coord3              	SPowLev             	Coord1              	Coord2              	Coord3              	SPowLev             	Coord1              	Coord2              	Coord3              	SPowLev             	Coord1              	Coord2              	Coord3              	SPowLev             	Coord1              	Coord2              	Coord3              	SPowLev             	Coord1              	Coord2              	Coord3              	SPowLev             	Coord1              	Coord2              	Coord3              	SPowLev             	Coord1              	Coord2              	Coord3              	SPowLev             	Coord1              	Coord2              	Coord3              	SPowLev             	Coord1              	Coord2              	Coord3              	SPowLev             	Coord1              	Coord2              	Coord3              	SPowLev             	Coord1              	Coord2              	Coord3              	SPowLev             	Coord1              	Coord2              	Coord3              	SPowLev             	Coord1              	Coord2              	Coord3              	SPowLev             	Coord1              	Coord2              	Coord3              	SPowLev             	Coord1              	Coord2              	Coord3              	SPowLev             	Coord1              	Coord2              	Coord3              	SPowLev             	Coord1              	Coord2              	Coord3              	SPowLev             	Coord1              	Coord2              	Coord3              	SPowLev             	Coord1              	Coord2              	Coord3              	SPowLev             	Coord1              	Coord2              	Coord3              	SPowLev             	Coord1              	Coord2              	Coord3              	SPowLev             	Coord1              	Coord2              	Coord3              	SPowLev             	Coord1              	Coord2              	Coord3              	SPowLev             	Coord1              	Coord2              	Coord3              	SPowLev             	Coord1              	Coord2              	Coord3              	SPowLev             	Coord1              	Coord2              	Coord3              	SPowLev             	Coord1              	Coord2              	Coord3              	SPowLev             	Coord1              	Coord2              	Coord3              	SPowLev             	Coord1              	Coord2              	Coord3              	SPowLev             	Coord1              	Coord2              	Coord3              	SPowLev             	Coord1              	Coord2              	Coord3              	SPowLev             	Coord1              	Coord2              	Coord3              	SPowLev             	Coord1              	Coord2              	Coord3              	SPowLev             	Coord1              	Coord2              	Coord3              	SPowLev             	Coord1              	Coord2              	Coord3              	SPowLev             	Coord1              	Coord2              	Coord3              	SPowLev             	Coord1              	Coord2              	Coord3              	SPowLev             	Coord1              	Coord2              	Coord3              	SPowLev             	Coord1              	Coord2              	Coord3              	SPowLev             	Coord1              	Coord2              	Coord3              	SPowLev             	Coord1              	Coord2              	Coord3              	SPowLev             	Coord1              	Coord2              	Coord3              	SPowLev             	Coord1              	Coord2              	Coord3              	SPowLev             	Coord1              	Coord2              	Coord3              	SPowLev             	Coord1              	Coord2              	Coord3              	SPowLev             	Coord1              	Coord2              	Coord3              	SPowLev             	Coord1              	Coord2              	Coord3              	SPowLev             	Coord1              	Coord2              	Coord3              	SPowLev             	Coord1              	Coord2              	Coord3              	SPowLev             	Coord1              	Coord2              	Coord3              	SPowLev             	Coord1              	Coord2              	Coord3              	SPowLev             	Coord1              	Coord2              	Coord3              	SPowLev             	Coord1              	Coord2              	Coord3              	SPowLev             	Coord1              	Coord2              	Coord3              	SPowLev             	Coord1              	Coord2              	Coord3              	SPowLev             	Coord1              	Coord2              	Coord3              	SPowLev             	Coord1              	Coord2              	Coord3              	SPowLev             	Coord1              	Coord2              	Coord3              	SPowLev             	Coord1              	Coord2              	Coord3              	SPowLev             	Coord1              	Coord2              	Coord3              	SPowLev             	Coord1              	Coord2              	Coord3              	SPowLev             	Coord1              	Coord2              	Coord3              	SPowLev             	Coord1              	Coord2              	Coord3              	SPowLev             	Coord1              	Coord2              	Coord3              	SPowLev             	Coord1              	Coord2              	Coord3              	SPowLev             	Coord1              	Coord2              	Coord3              	SPowLev             	Coord1              	Coord2              	Coord3              	SPowLev             	Coord1              	Coord2              	Coord3              	SPowLev             	Coord1              	Coord2              	Coord3              	SPowLev             	Coord1              	Coord2              	Coord3              	SPowLev             	Coord1              	Coord2              	Coord3              	SPowLev             	Coord1              	Coord2              	Coord3              	SPowLev             	Coord1              	Coord2              	Coord3              	SPowLev             	Coord1              	Coord2              	Coord3              	SPowLev             	Coord1              	Coord2              	Coord3              	SPowLev             	Coord1              	Coord2              	Coord3              	SPowLev             	Coord1              	Coord2              	Coord3              	SPowLev             	Coord1              	Coord2              	Coord3              	SPowLev             	Coord1              	Coord2              	Coord3              	SPowLev             	Coord1              	Coord2              	Coord3              	SPowLev             	Coord1              	Coord2              	Coord3              	SPowLev             	Coord1              	Coord2              	Coord3              	SPowLev             	Coord1              	Coord2              	Coord3              	SPowLev             	Coord1              	Coord2              	Coord3              	SPowLev             	Coord1              	Coord2              	Coord3              	SPowLev             	Coord1              	Coord2              	Coord3              	SPowLev             	Coord1              	Coord2              	Coord3              	SPowLev             	Coord1              	Coord2              	Coord3              	SPowLev             	Coord1              	Coord2              	Coord3              	SPowLev             	Coord1              	Coord2              	Coord3              	SPowLev             	Coord1              	Coord2              	Coord3              	SPowLev             	Coord1              	Coord2              	Coord3              	SPowLev             	Coord1              	Coord2              	Coord3              	SPowLev             	Coord1              	Coord2              	Coord3              
    3
   34
    1
	  1.000000E+001	  1.250000E+001	  1.600000E+001	  2.000000E+001	  2.500000E+001	  3.150000E+001	  4.000000E+001	  5.000000E+001	  6.300000E+001	  8.000000E+001	  1.000000E+002	  1.250000E+002	  1.600000E+002	  2.000000E+002	  2.500000E+002	  3.150000E+002	  4.000000E+002	  5.000000E+002	  6.300000E+002	  8.000000E+002	  1.000000E+003	  1.250000E+003	  1.600000E+003	  2.000000E+003	  2.500000E+003	  3.150000E+003	  4.000000E+003	  5.000000E+003	  6.300000E+003	  8.000000E+003	  1.000000E+004	  1.250000E+004	  1.600000E+004	  2.000000E+004
         0.1000	  1.747655E+001	 -3.955766E+000	 -4.683633E+000	  1.301800E+002	  1.774078E+001	 -1.040538E+001	 -4.233823E+001	  5.898840E+001	  8.439418E+000	 -9.829550E+000	  5.635240E+001	  6.550236E+001	  2.028195E+001	 -3.955766E+000	 -4.683633E+000	  1.301800E+002	  2.030786E+001	 -1.040538E+001	 -4.233823E+001	  5.898840E+001	  1.092112E+001	 -9.829550E+000	  5.635240E+001	  6.550236E+001	  2.179220E+001	 -3.955766E+000	 -4.683633E+000	  1.301800E+002	  2.161839E+001	 -1.040538E+001	 -4.233823E+001	  5.898840E+001	  1.214896E+001	 -9.829550E+000	  5.635240E+001	  6.550236E+001	  2.269933E+001	 -3.955766E+000	 -4.683633E+000	  1.301800E+002	  2.241712E+001	 -1.012896E+001	 -3.902024E+001	  6.138297E+001	  1.291319E+001	 -9.829550E+000	  5.635240E+001	  6.550236E+001	  2.329939E+001	 -3.955766E+000	 -4.683633E+000	  1.301800E+002	  2.293748E+001	 -1.012896E+001	 -3.902024E+001	  6.138297E+001	  1.344341E+001	 -9.829550E+000	  5.635240E+001	  6.550236E+001	  2.374813E+001	 -3.955766E+000	 -4.683633E+000	  1.301800E+002	  2.329299E+001	 -1.012896E+001	 -3.902024E+001	  6.138297E+001	  1.384868E+001	 -9.829550E+000	  5.635240E+001	  6.550236E+001	  2.410605E+001	 -3.955766E+000	 -4.683633E+000	  1.301800E+002	  2.355056E+001	 -1.012896E+001	 -3.902024E+001	  6.138297E+001	  1.420381E+001	 -8.189532E+000	  2.582592E+001	  7.919793E+001	  2.439553E+001	 -3.955766E+000	 -4.683633E+000	  1.301800E+002	  2.374138E+001	 -9.848955E+000	 -3.570299E+001	  6.377850E+001	  1.456923E+001	 -8.189532E+000	  2.582592E+001	  7.919793E+001	  2.462479E+001	 -4.241894E+000	 -4.249730E+000	  1.261105E+002	  2.388256E+001	 -9.848955E+000	 -3.570299E+001	  6.377850E+001	  1.498642E+001	 -8.189532E+000	  2.582592E+001	  7.919793E+001	  2.481181E+001	 -4.241894E+000	 -4.249730E+000	  1.261105E+002	  2.398967E+001	 -9.848955E+000	 -3.570299E+001	  6.377850E+001	  1.547728E+001	 -8.417064E+000	  2.957280E+001	  7.754414E+001	  2.498761E+001	 -3.045997E+000	 -5.963214E+000	  1.423865E+002	  2.407623E+001	 -9.848955E+000	 -3.570299E+001	  6.377850E+001	  1.601057E+001	 -8.644705E+000	  3.331831E+001	  7.588736E+001	  2.517897E+001	 -3.045997E+000	 -5.963214E+000	  1.423865E+002	  2.414746E+001	 -9.848955E+000	 -3.570299E+001	  6.377850E+001	  1.654027E+001	 -8.867761E+000	  3.706250E+001	  7.422699E+001	  2.538165E+001	 -3.045997E+000	 -5.963214E+000	  1.423865E+002	  2.420637E+001	 -9.565913E+000	 -3.238852E+001	  6.617782E+001	  1.702907E+001	 -9.302292E+000	  4.454446E+001	  7.089107E+001	  2.556838E+001	 -3.045997E+000	 -5.963214E+000	  1.423865E+002	  2.426142E+001	 -1.063389E+001	 -4.510373E+001	  5.699372E+001	  1.745557E+001	 -9.513343E+000	  4.828301E+001	  6.921763E+001	  2.571410E+001	 -2.779649E+000	 -6.315127E+000	  1.457760E+002	  2.431700E+001	 -1.063389E+001	 -4.510373E+001	  5.699372E+001	  1.781250E+001	 -9.513343E+000	  4.828301E+001	  6.921763E+001	  2.580747E+001	 -2.548113E+000	 -6.587457E+000	  1.484869E+002	  2.437136E+001	 -1.080019E+001	 -4.732177E+001	  5.540380E+001	  1.809995E+001	 -9.809316E+000	  5.388571E+001	  6.669434E+001	  2.586511E+001	 -2.207627E+000	 -6.800833E+000	  1.511971E+002	  2.441759E+001	 -1.080019E+001	 -4.732177E+001	  5.540380E+001	  1.832046E+001	 -9.809316E+000	  5.388571E+001	  6.669434E+001	  2.590043E+001	 -2.207627E+000	 -6.800833E+000	  1.511971E+002	  2.445449E+001	 -1.080019E+001	 -4.732177E+001	  5.540380E+001	  1.849336E+001	 -9.809316E+000	  5.388571E+001	  6.669434E+001	  2.592348E+001	 -2.207627E+000	 -6.800833E+000	  1.511971E+002	  2.448435E+001	 -1.080019E+001	 -4.732177E+001	  5.540380E+001	  1.863536E+001	 -9.809316E+000	  5.388571E+001	  6.669434E+001	  2.594096E+001	 -2.548113E+000	 -6.587457E+000	  1.484869E+002	  2.450922E+001	 -1.080019E+001	 -4.732177E+001	  5.540380E+001	  1.874952E+001	 -9.809316E+000	  5.388571E+001	  6.669434E+001	  2.595566E+001	 -2.548113E+000	 -6.587457E+000	  1.484869E+002	  2.452958E+001	 -1.080019E+001	 -4.732177E+001	  5.540380E+001	  1.883657E+001	 -9.809316E+000	  5.388571E+001	  6.669434E+001	  2.596764E+001	 -2.548113E+000	 -6.587457E+000	  1.484869E+002	  2.454508E+001	 -1.085556E+001	 -4.957769E+001	  5.385037E+001	  1.889933E+001	 -9.829550E+000	  5.635240E+001	  6.550236E+001	  2.597624E+001	 -2.207627E+000	 -6.800833E+000	  1.511971E+002	  2.455585E+001	 -1.085556E+001	 -4.957769E+001	  5.385037E+001	  1.894150E+001	 -9.829550E+000	  5.635240E+001	  6.550236E+001	  2.598232E+001	 -2.207627E+000	 -6.800833E+000	  1.511971E+002	  2.456321E+001	 -1.085556E+001	 -4.957769E+001	  5.385037E+001	  1.896999E+001	 -9.829550E+000	  5.635240E+001	  6.550236E+001	  2.598649E+001	 -2.207627E+000	 -6.800833E+000	  1.511971E+002	  2.456816E+001	 -1.085556E+001	 -4.957769E+001	  5.385037E+001	  1.898895E+001	 -9.829550E+000	  5.635240E+001	  6.550236E+001	  2.598924E+001	 -2.207627E+000	 -6.800833E+000	  1.511971E+002	  2.457139E+001	 -1.085556E+001	 -4.957769E+001	  5.385037E+001	  1.900122E+001	 -9.829550E+000	  5.635240E+001	  6.550236E+001	  2.599102E+001	 -2.207627E+000	 -6.800833E+000	  1.511971E+002	  2.457343E+001	 -1.085556E+001	 -4.957769E+001	  5.385037E+001	  1.900888E+001	 -9.829550E+000	  5.635240E+001	  6.550236E+001	  2.599219E+001	 -2.207627E+000	 -6.800833E+000	  1.511971E+002	  2.457473E+001	 -1.085556E+001	 -4.957769E+001	  5.385037E+001	  1.901369E+001	 -9.829550E+000	  5.635240E+001	  6.550236E+001	  2.599293E+001	 -2.207627E+000	 -6.800833E+000	  1.511971E+002	  2.457552E+001	 -1.085556E+001	 -4.957769E+001	  5.385037E+001	  1.901659E+001	 -9.829550E+000	  5.635240E+001	  6.550236E+001	  2.599339E+001	 -2.207627E+000	 -6.800833E+000	  1.511971E+002	  2.457598E+001	 -1.085556E+001	 -4.957769E+001	  5.385037E+001	  1.901825E+001	 -9.829550E+000	  5.635240E+001	  6.550236E+001	  2.599366E+001	 -2.207627E+000	 -6.800833E+000	  1.511971E+002	  2.457625E+001	 -1.085556E+001	 -4.957769E+001	  5.385037E+001	  1.901920E+001	 -9.829550E+000	  5.635240E+001	  6.550236E+001	  2.599383E+001	 -2.207627E+000	 -6.800833E+000	  1.511971E+002	  2.457640E+001	 -1.085556E+001	 -4.957769E+001	  5.385037E+001	  1.901972E+001	 -9.829550E+000	  5.635240E+001	  6.550236E+001	  2.599391E+001	 -2.207627E+000	 -6.800833E+000	  1.511971E+002	  2.457647E+001	 -1.085556E+001	 -4.957769E+001	  5.385037E+001	  1.901997E+001	 -9.829550E+000	  5.635240E+001	  6.550236E+001	  2.599396E+001	 -2.207627E+000	 -6.800833E+000	  1.511971E+002	  2.457651E+001	 -1.085556E+001	 -4.957769E+001	  5.385037E+001	  1.902010E+001	 -9.829550E+000	  5.635240E+001	  6.550236E+001