
Predictions were generated on 17-Apr-2019 at 09:56:21 using FAST (v8.16.00a-bjj, 27-Jul-2016), compiled as a 64-bit application using double precision
 linked with  NWTC Subroutine Library (v2.09.00, 23-Jul-2016); ElastoDyn (v1.04.00a-bjj, 26-Jul-2016); InflowWind (v3.03.00, 26-Jul-2016); AeroDyn (v15.03.00, 27-Jul-2016)

Description from the FAST input file: FAST Certification Test #18: NREL 5.0 MW Baseline Wind Turbine (Onshore)

Time      	Wind1VelX 	Wind1VelY 	Wind1VelZ 	OoPDefl1  	IPDefl1   	TwstDefl1 	BldPitch1 	Azimuth   	RotSpeed  	GenSpeed  	TTDspFA   	TTDspSS   	TTDspTwst 	Spn2MLxb1 	Spn2MLyb1 	RootFxb1  	RootFyb1  	RootFzb1  	RootMxb1  	RootMyb1  	RootMzb1  	RotTorq   	LSSGagMya 	LSSGagMza 	YawBrFxp  	YawBrFyp  	YawBrFzp  	YawBrMxp  	YawBrMyp  	YawBrMzp  	TwrBsFxt  	TwrBsFyt  	TwrBsFzt  	TwrBsMxt  	TwrBsMyt  	TwrBsMzt  
(s)       	(m/s)     	(m/s)     	(m/s)     	(m)       	(m)       	(deg)     	(deg)     	(deg)     	(rpm)     	(rpm)     	(m)       	(m)       	(deg)     	(kN·m)    	(kN·m)    	(kN)      	(kN)      	(kN)      	(kN·m)    	(kN·m)    	(kN·m)    	(kN·m)    	(kN·m)    	(kN·m)    	(kN)      	(kN)      	(kN)      	(kN·m)    	(kN·m)    	(kN·m)    	(kN)      	(kN)      	(kN)      	(kN·m)    	(kN·m)    	(kN·m)    
    5.0000	 1.200E+01	-0.000E+00	 0.000E+00	 5.966E+00	-2.893E-01	 0.000E+00	-1.000E+00	 3.051E+02	 1.017E+01	 9.865E+02	 6.436E-01	-8.278E-02	 0.000E+00	-2.402E+02	 2.871E+03	 3.146E+02	 7.563E+01	 3.143E+02	-6.655E+02	 1.112E+04	 7.277E+01	 5.575E+03	 4.171E+02	 2.579E+03	 1.071E+03	-5.053E+01	-3.551E+03	 5.778E+03	 5.413E+03	 9.243E+02	 1.135E+03	-7.612E+00	-6.972E+03	 8.005E+03	 1.050E+05	 9.372E+02
    5.0050	 1.200E+01	-0.000E+00	 0.000E+00	 5.978E+00	-2.933E-01	 0.000E+00	-1.000E+00	 3.054E+02	 1.017E+01	 9.865E+02	 6.428E-01	-8.289E-02	 0.000E+00	-2.360E+02	 2.877E+03	 3.150E+02	 7.483E+01	 3.134E+02	-6.437E+02	 1.114E+04	 7.222E+01	 5.581E+03	 4.316E+02	 2.590E+03	 1.070E+03	-5.051E+01	-3.552E+03	 5.784E+03	 5.419E+03	 9.286E+02	 1.133E+03	-7.772E+00	-6.973E+03	 8.021E+03	 1.049E+05	 9.415E+02
    5.0100	 1.200E+01	-0.000E+00	 0.000E+00	 5.990E+00	-2.974E-01	 0.000E+00	-1.000E+00	 3.057E+02	 1.017E+01	 9.865E+02	 6.420E-01	-8.300E-02	 0.000E+00	-2.318E+02	 2.883E+03	 3.154E+02	 7.403E+01	 3.125E+02	-6.217E+02	 1.116E+04	 7.165E+01	 5.586E+03	 4.466E+02	 2.600E+03	 1.069E+03	-5.046E+01	-3.553E+03	 5.789E+03	 5.425E+03	 9.321E+02	 1.131E+03	-8.039E+00	-6.974E+03	 8.040E+03	 1.047E+05	 9.449E+02
    5.0150	 1.200E+01	-0.000E+00	 0.000E+00	 6.002E+00	-3.015E-01	 0.000E+00	-1.000E+00	 3.060E+02	 1.017E+01	 9.865E+02	 6.412E-01	-8.312E-02	 0.000E+00	-2.280E+02	 2.890E+03	 3.156E+02	 7.322E+01	 3.116E+02	-5.999E+02	 1.117E+04	 7.155E+01	 5.591E+03	 4.564E+02	 2.610E+03	 1.068E+03	-5.037E+01	-3.554E+03	 5.794E+03	 5.429E+03	 9.402E+02	 1.129E+03	-8.425E+00	-6.975E+03	 8.063E+03	 1.045E+05	 9.530E+02
    5.0200	 1.200E+01	-0.000E+00	 0.000E+00	 6.014E+00	-3.056E-01	 0.000E+00	-1.000E+00	 3.063E+02	 1.017E+01	 9.865E+02	 6.404E-01	-8.324E-02	 0.000E+00	-2.234E+02	 2.895E+03	 3.162E+02	 7.243E+01	 3.108E+02	-5.777E+02	 1.119E+04	 7.062E+01	 5.595E+03	 4.769E+02	 2.619E+03	 1.066E+03	-5.026E+01	-3.555E+03	 5.798E+03	 5.436E+03	 9.380E+02	 1.127E+03	-8.893E+00	-6.976E+03	 8.089E+03	 1.044E+05	 9.508E+02
    5.0250	 1.200E+01	-0.000E+00	 0.000E+00	 6.026E+00	-3.097E-01	 0.000E+00	-1.000E+00	 3.066E+02	 1.017E+01	 9.865E+02	 6.395E-01	-8.336E-02	 0.000E+00	-2.192E+02	 2.901E+03	 3.165E+02	 7.163E+01	 3.099E+02	-5.557E+02	 1.121E+04	 7.026E+01	 5.598E+03	 4.904E+02	 2.628E+03	 1.065E+03	-5.010E+01	-3.555E+03	 5.801E+03	 5.441E+03	 9.420E+02	 1.125E+03	-9.479E+00	-6.976E+03	 8.118E+03	 1.042E+05	 9.548E+02
    5.0300	 1.200E+01	-0.000E+00	 0.000E+00	 6.038E+00	-3.138E-01	 0.000E+00	-1.000E+00	 3.069E+02	 1.017E+01	 9.865E+02	 6.386E-01	-8.349E-02	 0.000E+00	-2.148E+02	 2.907E+03	 3.169E+02	 7.082E+01	 3.090E+02	-5.335E+02	 1.123E+04	 6.901E+01	 5.601E+03	 5.062E+02	 2.635E+03	 1.063E+03	-4.991E+01	-3.556E+03	 5.804E+03	 5.446E+03	 9.431E+02	 1.122E+03	-1.016E+01	-6.977E+03	 8.150E+03	 1.041E+05	 9.559E+02
    5.0350	 1.200E+01	-0.000E+00	 0.000E+00	 6.050E+00	-3.179E-01	 0.000E+00	-1.000E+00	 3.072E+02	 1.017E+01	 9.865E+02	 6.377E-01	-8.362E-02	 0.000E+00	-2.104E+02	 2.913E+03	 3.173E+02	 7.002E+01	 3.081E+02	-5.115E+02	 1.125E+04	 6.882E+01	 5.603E+03	 5.220E+02	 2.643E+03	 1.062E+03	-4.970E+01	-3.557E+03	 5.806E+03	 5.451E+03	 9.445E+02	 1.120E+03	-1.094E+01	-6.977E+03	 8.186E+03	 1.039E+05	 9.573E+02
    5.0400	 1.200E+01	-0.000E+00	 0.000E+00	 6.062E+00	-3.221E-01	 0.000E+00	-1.000E+00	 3.075E+02	 1.017E+01	 9.865E+02	 6.367E-01	-8.375E-02	 0.000E+00	-2.060E+02	 2.919E+03	 3.176E+02	 6.922E+01	 3.072E+02	-4.893E+02	 1.126E+04	 6.798E+01	 5.605E+03	 5.379E+02	 2.650E+03	 1.060E+03	-4.945E+01	-3.557E+03	 5.807E+03	 5.455E+03	 9.451E+02	 1.118E+03	-1.181E+01	-6.978E+03	 8.225E+03	 1.037E+05	 9.579E+02
    5.0450	 1.200E+01	-0.000E+00	 0.000E+00	 6.074E+00	-3.263E-01	 0.000E+00	-1.000E+00	 3.078E+02	 1.017E+01	 9.865E+02	 6.357E-01	-8.389E-02	 0.000E+00	-2.016E+02	 2.925E+03	 3.180E+02	 6.842E+01	 3.063E+02	-4.671E+02	 1.128E+04	 6.722E+01	 5.606E+03	 5.539E+02	 2.657E+03	 1.059E+03	-4.918E+01	-3.558E+03	 5.808E+03	 5.460E+03	 9.453E+02	 1.116E+03	-1.278E+01	-6.978E+03	 8.266E+03	 1.035E+05	 9.581E+02
    5.0500	 1.200E+01	-0.000E+00	 0.000E+00	 6.086E+00	-3.304E-01	 0.000E+00	-1.000E+00	 3.082E+02	 1.017E+01	 9.865E+02	 6.347E-01	-8.402E-02	 0.000E+00	-1.971E+02	 2.931E+03	 3.183E+02	 6.762E+01	 3.054E+02	-4.450E+02	 1.130E+04	 6.654E+01	 5.607E+03	 5.700E+02	 2.663E+03	 1.057E+03	-4.888E+01	-3.558E+03	 5.808E+03	 5.464E+03	 9.452E+02	 1.113E+03	-1.382E+01	-6.979E+03	 8.310E+03	 1.033E+05	 9.580E+02
    5.0550	 1.200E+01	-0.000E+00	 0.000E+00	 6.098E+00	-3.346E-01	 0.000E+00	-1.000E+00	 3.085E+02	 1.017E+01	 9.865E+02	 6.337E-01	-8.416E-02	 0.000E+00	-1.926E+02	 2.937E+03	 3.187E+02	 6.682E+01	 3.045E+02	-4.228E+02	 1.131E+04	 6.575E+01	 5.607E+03	 5.863E+02	 2.668E+03	 1.056E+03	-4.856E+01	-3.558E+03	 5.807E+03	 5.468E+03	 9.446E+02	 1.111E+03	-1.494E+01	-6.979E+03	 8.357E+03	 1.032E+05	 9.573E+02
    5.0600	 1.200E+01	-0.000E+00	 0.000E+00	 6.110E+00	-3.388E-01	 0.000E+00	-1.000E+00	 3.088E+02	 1.017E+01	 9.865E+02	 6.327E-01	-8.431E-02	 0.000E+00	-1.881E+02	 2.943E+03	 3.190E+02	 6.603E+01	 3.037E+02	-4.007E+02	 1.133E+04	 6.500E+01	 5.606E+03	 6.024E+02	 2.673E+03	 1.054E+03	-4.823E+01	-3.558E+03	 5.805E+03	 5.472E+03	 9.437E+02	 1.108E+03	-1.614E+01	-6.979E+03	 8.406E+03	 1.030E+05	 9.564E+02
    5.0650	 1.200E+01	-0.000E+00	 0.000E+00	 6.122E+00	-3.430E-01	 0.000E+00	-1.000E+00	 3.091E+02	 1.017E+01	 9.865E+02	 6.316E-01	-8.445E-02	 0.000E+00	-1.835E+02	 2.949E+03	 3.194E+02	 6.523E+01	 3.028E+02	-3.786E+02	 1.135E+04	 6.422E+01	 5.605E+03	 6.185E+02	 2.678E+03	 1.052E+03	-4.787E+01	-3.559E+03	 5.803E+03	 5.476E+03	 9.425E+02	 1.106E+03	-1.739E+01	-6.979E+03	 8.458E+03	 1.028E+05	 9.552E+02
    5.0700	 1.200E+01	-0.000E+00	 0.000E+00	 6.134E+00	-3.472E-01	 0.000E+00	-1.000E+00	 3.094E+02	 1.017E+01	 9.865E+02	 6.305E-01	-8.460E-02	 0.000E+00	-1.790E+02	 2.955E+03	 3.197E+02	 6.443E+01	 3.019E+02	-3.565E+02	 1.136E+04	 6.343E+01	 5.603E+03	 6.351E+02	 2.682E+03	 1.050E+03	-4.751E+01	-3.559E+03	 5.801E+03	 5.480E+03	 9.407E+02	 1.103E+03	-1.871E+01	-6.979E+03	 8.511E+03	 1.026E+05	 9.534E+02
    5.0750	 1.200E+01	-0.000E+00	 0.000E+00	 6.146E+00	-3.514E-01	 0.000E+00	-1.000E+00	 3.097E+02	 1.017E+01	 9.865E+02	 6.294E-01	-8.475E-02	 0.000E+00	-1.745E+02	 2.961E+03	 3.200E+02	 6.364E+01	 3.010E+02	-3.344E+02	 1.138E+04	 6.262E+01	 5.601E+03	 6.516E+02	 2.686E+03	 1.048E+03	-4.713E+01	-3.559E+03	 5.798E+03	 5.483E+03	 9.386E+02	 1.101E+03	-2.008E+01	-6.979E+03	 8.566E+03	 1.024E+05	 9.513E+02
    5.0800	 1.200E+01	-0.000E+00	 0.000E+00	 6.158E+00	-3.555E-01	 0.000E+00	-1.000E+00	 3.100E+02	 1.017E+01	 9.865E+02	 6.283E-01	-8.490E-02	 0.000E+00	-1.699E+02	 2.967E+03	 3.203E+02	 6.284E+01	 3.001E+02	-3.123E+02	 1.140E+04	 6.179E+01	 5.598E+03	 6.682E+02	 2.690E+03	 1.047E+03	-4.675E+01	-3.558E+03	 5.794E+03	 5.487E+03	 9.365E+02	 1.099E+03	-2.149E+01	-6.979E+03	 8.623E+03	 1.022E+05	 9.491E+02
    5.0850	 1.200E+01	-0.000E+00	 0.000E+00	 6.170E+00	-3.597E-01	 0.000E+00	-1.000E+00	 3.103E+02	 1.017E+01	 9.865E+02	 6.272E-01	-8.505E-02	 0.000E+00	-1.657E+02	 2.972E+03	 3.207E+02	 6.199E+01	 2.992E+02	-2.893E+02	 1.141E+04	 6.130E+01	 5.596E+03	 6.866E+02	 2.693E+03	 1.045E+03	-4.633E+01	-3.558E+03	 5.791E+03	 5.491E+03	 9.327E+02	 1.096E+03	-2.298E+01	-6.979E+03	 8.682E+03	 1.020E+05	 9.453E+02
    5.0900	 1.200E+01	-0.000E+00	 0.000E+00	 6.182E+00	-3.639E-01	 0.000E+00	-1.000E+00	 3.106E+02	 1.017E+01	 9.865E+02	 6.260E-01	-8.521E-02	 0.000E+00	-1.608E+02	 2.978E+03	 3.209E+02	 6.124E+01	 2.983E+02	-2.683E+02	 1.143E+04	 6.012E+01	 5.592E+03	 7.015E+02	 2.695E+03	 1.043E+03	-4.598E+01	-3.558E+03	 5.785E+03	 5.493E+03	 9.308E+02	 1.094E+03	-2.443E+01	-6.978E+03	 8.740E+03	 1.018E+05	 9.434E+02
    5.0950	 1.200E+01	-0.000E+00	 0.000E+00	 6.194E+00	-3.680E-01	 0.000E+00	-1.000E+00	 3.109E+02	 1.017E+01	 9.865E+02	 6.248E-01	-8.537E-02	 0.000E+00	-1.564E+02	 2.984E+03	 3.212E+02	 6.043E+01	 2.974E+02	-2.461E+02	 1.144E+04	 5.942E+01	 5.589E+03	 7.171E+02	 2.700E+03	 1.041E+03	-4.555E+01	-3.558E+03	 5.781E+03	 5.497E+03	 9.302E+02	 1.091E+03	-2.597E+01	-6.978E+03	 8.801E+03	 1.016E+05	 9.428E+02
    5.1000	 1.200E+01	-0.000E+00	 0.000E+00	 6.206E+00	-3.722E-01	 0.000E+00	-1.000E+00	 3.112E+02	 1.017E+01	 9.865E+02	 6.236E-01	-8.553E-02	 0.000E+00	-1.518E+02	 2.990E+03	 3.216E+02	 5.963E+01	 2.966E+02	-2.242E+02	 1.146E+04	 5.839E+01	 5.582E+03	 7.360E+02	 2.699E+03	 1.039E+03	-4.526E+01	-3.557E+03	 5.774E+03	 5.499E+03	 9.234E+02	 1.088E+03	-2.743E+01	-6.977E+03	 8.861E+03	 1.013E+05	 9.360E+02
    5.1050	 1.200E+01	-0.000E+00	 0.000E+00	 6.218E+00	-3.763E-01	 0.000E+00	-1.000E+00	 3.115E+02	 1.017E+01	 9.865E+02	 6.223E-01	-8.569E-02	 0.000E+00	-1.474E+02	 2.996E+03	 3.218E+02	 5.882E+01	 2.957E+02	-2.023E+02	 1.148E+04	 5.772E+01	 5.579E+03	 7.526E+02	 2.701E+03	 1.036E+03	-4.485E+01	-3.557E+03	 5.769E+03	 5.502E+03	 9.203E+02	 1.086E+03	-2.899E+01	-6.977E+03	 8.923E+03	 1.011E+05	 9.329E+02
    5.1100	 1.200E+01	-0.000E+00	 0.000E+00	 6.230E+00	-3.804E-01	 0.000E+00	-1.000E+00	 3.118E+02	 1.017E+01	 9.865E+02	 6.211E-01	-8.585E-02	 0.000E+00	-1.430E+02	 3.002E+03	 3.221E+02	 5.802E+01	 2.948E+02	-1.805E+02	 1.149E+04	 5.670E+01	 5.573E+03	 7.690E+02	 2.702E+03	 1.034E+03	-4.452E+01	-3.556E+03	 5.762E+03	 5.505E+03	 9.164E+02	 1.083E+03	-3.050E+01	-6.976E+03	 8.985E+03	 1.009E+05	 9.290E+02
    5.1150	 1.200E+01	-0.000E+00	 0.000E+00	 6.242E+00	-3.845E-01	 0.000E+00	-1.000E+00	 3.121E+02	 1.017E+01	 9.865E+02	 6.198E-01	-8.601E-02	 0.000E+00	-1.385E+02	 3.008E+03	 3.224E+02	 5.722E+01	 2.939E+02	-1.588E+02	 1.151E+04	 5.587E+01	 5.567E+03	 7.862E+02	 2.703E+03	 1.032E+03	-4.419E+01	-3.556E+03	 5.755E+03	 5.507E+03	 9.120E+02	 1.081E+03	-3.202E+01	-6.976E+03	 9.046E+03	 1.007E+05	 9.246E+02
    5.1200	 1.200E+01	-0.000E+00	 0.000E+00	 6.254E+00	-3.886E-01	 0.000E+00	-1.000E+00	 3.124E+02	 1.017E+01	 9.865E+02	 6.185E-01	-8.618E-02	 0.000E+00	-1.341E+02	 3.014E+03	 3.226E+02	 5.641E+01	 2.930E+02	-1.372E+02	 1.152E+04	 5.498E+01	 5.561E+03	 8.032E+02	 2.703E+03	 1.030E+03	-4.389E+01	-3.555E+03	 5.748E+03	 5.510E+03	 9.074E+02	 1.078E+03	-3.352E+01	-6.975E+03	 9.108E+03	 1.005E+05	 9.199E+02
    5.1250	 1.200E+01	-0.000E+00	 0.000E+00	 6.266E+00	-3.927E-01	 0.000E+00	-1.000E+00	 3.127E+02	 1.017E+01	 9.865E+02	 6.172E-01	-8.635E-02	 0.000E+00	-1.298E+02	 3.019E+03	 3.228E+02	 5.560E+01	 2.921E+02	-1.156E+02	 1.153E+04	 5.409E+01	 5.554E+03	 8.201E+02	 2.703E+03	 1.027E+03	-4.361E+01	-3.554E+03	 5.740E+03	 5.512E+03	 9.027E+02	 1.075E+03	-3.499E+01	-6.974E+03	 9.169E+03	 1.002E+05	 9.152E+02
    5.1300	 1.200E+01	-0.000E+00	 0.000E+00	 6.278E+00	-3.967E-01	 0.000E+00	-1.000E+00	 3.130E+02	 1.017E+01	 9.865E+02	 6.158E-01	-8.651E-02	 0.000E+00	-1.255E+02	 3.025E+03	 3.231E+02	 5.479E+01	 2.912E+02	-9.411E+01	 1.155E+04	 5.321E+01	 5.547E+03	 8.371E+02	 2.702E+03	 1.025E+03	-4.336E+01	-3.553E+03	 5.732E+03	 5.514E+03	 8.978E+02	 1.073E+03	-3.644E+01	-6.973E+03	 9.230E+03	 1.000E+05	 9.102E+02
    5.1350	 1.200E+01	-0.000E+00	 0.000E+00	 6.290E+00	-4.007E-01	 0.000E+00	-1.000E+00	 3.133E+02	 1.017E+01	 9.865E+02	 6.144E-01	-8.668E-02	 0.000E+00	-1.212E+02	 3.031E+03	 3.233E+02	 5.398E+01	 2.903E+02	-7.271E+01	 1.156E+04	 5.232E+01	 5.540E+03	 8.540E+02	 2.702E+03	 1.023E+03	-4.314E+01	-3.553E+03	 5.724E+03	 5.517E+03	 8.928E+02	 1.070E+03	-3.785E+01	-6.972E+03	 9.289E+03	 9.977E+04	 9.052E+02
    5.1400	 1.200E+01	-0.000E+00	 0.000E+00	 6.302E+00	-4.047E-01	 0.000E+00	-1.000E+00	 3.136E+02	 1.017E+01	 9.865E+02	 6.131E-01	-8.685E-02	 0.000E+00	-1.170E+02	 3.037E+03	 3.235E+02	 5.317E+01	 2.894E+02	-5.140E+01	 1.158E+04	 5.144E+01	 5.532E+03	 8.709E+02	 2.701E+03	 1.020E+03	-4.296E+01	-3.552E+03	 5.715E+03	 5.519E+03	 8.877E+02	 1.067E+03	-3.922E+01	-6.971E+03	 9.348E+03	 9.953E+04	 9.001E+02
    5.1450	 1.200E+01	-0.000E+00	 0.000E+00	 6.313E+00	-4.086E-01	 0.000E+00	-1.000E+00	 3.139E+02	 1.017E+01	 9.865E+02	 6.117E-01	-8.702E-02	 0.000E+00	-1.128E+02	 3.043E+03	 3.237E+02	 5.236E+01	 2.886E+02	-3.035E+01	 1.159E+04	 5.074E+01	 5.524E+03	 8.869E+02	 2.700E+03	 1.018E+03	-4.281E+01	-3.551E+03	 5.706E+03	 5.521E+03	 8.832E+02	 1.065E+03	-4.054E+01	-6.970E+03	 9.406E+03	 9.929E+04	 8.956E+02
    5.1500	 1.200E+01	-0.000E+00	 0.000E+00	 6.325E+00	-4.126E-01	 0.000E+00	-1.000E+00	 3.143E+02	 1.017E+01	 9.865E+02	 6.102E-01	-8.719E-02	 0.000E+00	-1.087E+02	 3.049E+03	 3.238E+02	 5.155E+01	 2.877E+02	-9.416E+00	 1.160E+04	 5.004E+01	 5.515E+03	 9.028E+02	 2.698E+03	 1.015E+03	-4.271E+01	-3.550E+03	 5.697E+03	 5.522E+03	 8.788E+02	 1.062E+03	-4.181E+01	-6.969E+03	 9.462E+03	 9.905E+04	 8.912E+02
    5.1550	 1.200E+01	-0.000E+00	 0.000E+00	 6.337E+00	-4.164E-01	 0.000E+00	-1.000E+00	 3.146E+02	 1.017E+01	 9.865E+02	 6.088E-01	-8.736E-02	 0.000E+00	-1.047E+02	 3.055E+03	 3.240E+02	 5.073E+01	 2.868E+02	 1.155E+01	 1.162E+04	 4.918E+01	 5.506E+03	 9.193E+02	 2.697E+03	 1.013E+03	-4.264E+01	-3.548E+03	 5.687E+03	 5.524E+03	 8.737E+02	 1.059E+03	-4.303E+01	-6.968E+03	 9.517E+03	 9.880E+04	 8.861E+02
    5.1600	 1.200E+01	-0.000E+00	 0.000E+00	 6.349E+00	-4.203E-01	 0.000E+00	-1.000E+00	 3.149E+02	 1.017E+01	 9.865E+02	 6.073E-01	-8.753E-02	 0.000E+00	-1.007E+02	 3.061E+03	 3.242E+02	 4.992E+01	 2.859E+02	 3.234E+01	 1.163E+04	 4.844E+01	 5.497E+03	 9.355E+02	 2.695E+03	 1.010E+03	-4.262E+01	-3.547E+03	 5.677E+03	 5.526E+03	 8.690E+02	 1.056E+03	-4.418E+01	-6.967E+03	 9.571E+03	 9.855E+04	 8.813E+02
    5.1650	 1.200E+01	-0.000E+00	 0.000E+00	 6.361E+00	-4.241E-01	 0.000E+00	-1.000E+00	 3.152E+02	 1.017E+01	 9.865E+02	 6.058E-01	-8.770E-02	 0.000E+00	-9.679E+01	 3.067E+03	 3.243E+02	 4.909E+01	 2.850E+02	 5.304E+01	 1.164E+04	 4.773E+01	 5.487E+03	 9.518E+02	 2.692E+03	 1.007E+03	-4.264E+01	-3.546E+03	 5.667E+03	 5.528E+03	 8.637E+02	 1.053E+03	-4.527E+01	-6.965E+03	 9.622E+03	 9.830E+04	 8.760E+02
    5.1700	 1.200E+01	-0.000E+00	 0.000E+00	 6.372E+00	-4.279E-01	 0.000E+00	-1.000E+00	 3.155E+02	 1.017E+01	 9.865E+02	 6.043E-01	-8.787E-02	 0.000E+00	-9.294E+01	 3.073E+03	 3.244E+02	 4.827E+01	 2.842E+02	 7.364E+01	 1.165E+04	 4.699E+01	 5.477E+03	 9.680E+02	 2.690E+03	 1.005E+03	-4.271E+01	-3.544E+03	 5.656E+03	 5.529E+03	 8.584E+02	 1.051E+03	-4.629E+01	-6.964E+03	 9.673E+03	 9.804E+04	 8.706E+02
    5.1750	 1.200E+01	-0.000E+00	 0.000E+00	 6.384E+00	-4.317E-01	 0.000E+00	-1.000E+00	 3.158E+02	 1.017E+01	 9.865E+02	 6.028E-01	-8.804E-02	 0.000E+00	-8.915E+01	 3.078E+03	 3.246E+02	 4.744E+01	 2.833E+02	 9.410E+01	 1.166E+04	 4.628E+01	 5.466E+03	 9.839E+02	 2.687E+03	 1.002E+03	-4.282E+01	-3.543E+03	 5.646E+03	 5.531E+03	 8.536E+02	 1.048E+03	-4.725E+01	-6.962E+03	 9.721E+03	 9.779E+04	 8.658E+02
    5.1800	 1.200E+01	-0.000E+00	 0.000E+00	 6.396E+00	-4.354E-01	 0.000E+00	-1.000E+00	 3.161E+02	 1.017E+01	 9.865E+02	 6.013E-01	-8.821E-02	 0.000E+00	-8.543E+01	 3.084E+03	 3.247E+02	 4.662E+01	 2.824E+02	 1.144E+02	 1.167E+04	 4.558E+01	 5.456E+03	 9.994E+02	 2.685E+03	 9.993E+02	-4.297E+01	-3.542E+03	 5.635E+03	 5.532E+03	 8.492E+02	 1.045E+03	-4.814E+01	-6.961E+03	 9.767E+03	 9.752E+04	 8.614E+02
    5.1850	 1.200E+01	-0.000E+00	 0.000E+00	 6.407E+00	-4.390E-01	 0.000E+00	-1.000E+00	 3.164E+02	 1.017E+01	 9.865E+02	 5.997E-01	-8.838E-02	 0.000E+00	-8.204E+01	 3.088E+03	 3.251E+02	 4.570E+01	 2.815E+02	 1.364E+02	 1.169E+04	 4.513E+01	 5.447E+03	 1.021E+03	 2.682E+03	 9.964E+02	-4.311E+01	-3.540E+03	 5.625E+03	 5.538E+03	 8.405E+02	 1.042E+03	-4.901E+01	-6.959E+03	 9.813E+03	 9.726E+04	 8.526E+02
    5.1900	 1.200E+01	-0.000E+00	 0.000E+00	 6.419E+00	-4.427E-01	 0.000E+00	-1.000E+00	 3.167E+02	 1.017E+01	 9.865E+02	 5.981E-01	-8.855E-02	 0.000E+00	-7.824E+01	 3.096E+03	 3.249E+02	 4.495E+01	 2.806E+02	 1.548E+02	 1.170E+04	 4.416E+01	 5.434E+03	 1.029E+03	 2.679E+03	 9.937E+02	-4.340E+01	-3.539E+03	 5.613E+03	 5.535E+03	 8.413E+02	 1.039E+03	-4.973E+01	-6.958E+03	 9.855E+03	 9.699E+04	 8.534E+02
    5.1950	 1.200E+01	-0.000E+00	 0.000E+00	 6.431E+00	-4.463E-01	 0.000E+00	-1.000E+00	 3.170E+02	 1.017E+01	 9.865E+02	 5.965E-01	-8.871E-02	 0.000E+00	-7.482E+01	 3.101E+03	 3.250E+02	 4.409E+01	 2.798E+02	 1.753E+02	 1.171E+04	 4.362E+01	 5.423E+03	 1.046E+03	 2.676E+03	 9.909E+02	-4.366E+01	-3.537E+03	 5.602E+03	 5.537E+03	 8.365E+02	 1.036E+03	-5.043E+01	-6.956E+03	 9.896E+03	 9.672E+04	 8.486E+02
    5.2000	 1.200E+01	-0.000E+00	 0.000E+00	 6.442E+00	-4.498E-01	 0.000E+00	-1.000E+00	 3.173E+02	 1.017E+01	 9.865E+02	 5.949E-01	-8.888E-02	 0.000E+00	-7.137E+01	 3.106E+03	 3.251E+02	 4.325E+01	 2.789E+02	 1.952E+02	 1.172E+04	 4.301E+01	 5.412E+03	 1.061E+03	 2.672E+03	 9.880E+02	-4.399E+01	-3.535E+03	 5.591E+03	 5.538E+03	 8.318E+02	 1.033E+03	-5.104E+01	-6.954E+03	 9.935E+03	 9.645E+04	 8.438E+02
    5.2050	 1.200E+01	-0.000E+00	 0.000E+00	 6.454E+00	-4.533E-01	 0.000E+00	-1.000E+00	 3.176E+02	 1.017E+01	 9.865E+02	 5.933E-01	-8.905E-02	 0.000E+00	-6.804E+01	 3.112E+03	 3.252E+02	 4.241E+01	 2.780E+02	 2.149E+02	 1.173E+04	 4.245E+01	 5.399E+03	 1.075E+03	 2.670E+03	 9.852E+02	-4.439E+01	-3.534E+03	 5.578E+03	 5.539E+03	 8.292E+02	 1.029E+03	-5.157E+01	-6.952E+03	 9.971E+03	 9.617E+04	 8.412E+02
    5.2100	 1.200E+01	-0.000E+00	 0.000E+00	 6.465E+00	-4.568E-01	 0.000E+00	-1.000E+00	 3.179E+02	 1.017E+01	 9.865E+02	 5.916E-01	-8.921E-02	 0.000E+00	-6.474E+01	 3.118E+03	 3.252E+02	 4.157E+01	 2.772E+02	 2.345E+02	 1.174E+04	 4.173E+01	 5.388E+03	 1.090E+03	 2.665E+03	 9.823E+02	-4.474E+01	-3.532E+03	 5.568E+03	 5.540E+03	 8.247E+02	 1.026E+03	-5.209E+01	-6.951E+03	 1.001E+04	 9.589E+04	 8.366E+02
    5.2150	 1.200E+01	-0.000E+00	 0.000E+00	 6.477E+00	-4.602E-01	 0.000E+00	-1.000E+00	 3.182E+02	 1.017E+01	 9.865E+02	 5.900E-01	-8.937E-02	 0.000E+00	-6.152E+01	 3.123E+03	 3.253E+02	 4.073E+01	 2.763E+02	 2.539E+02	 1.175E+04	 4.124E+01	 5.375E+03	 1.104E+03	 2.660E+03	 9.795E+02	-4.520E+01	-3.530E+03	 5.555E+03	 5.540E+03	 8.209E+02	 1.023E+03	-5.250E+01	-6.949E+03	 1.004E+04	 9.560E+04	 8.328E+02
    5.2200	 1.200E+01	-0.000E+00	 0.000E+00	 6.488E+00	-4.636E-01	 0.000E+00	-1.000E+00	 3.185E+02	 1.017E+01	 9.865E+02	 5.883E-01	-8.954E-02	 0.000E+00	-5.834E+01	 3.128E+03	 3.254E+02	 3.989E+01	 2.755E+02	 2.733E+02	 1.176E+04	 4.088E+01	 5.363E+03	 1.119E+03	 2.656E+03	 9.765E+02	-4.566E+01	-3.528E+03	 5.544E+03	 5.542E+03	 8.167E+02	 1.020E+03	-5.288E+01	-6.947E+03	 1.007E+04	 9.531E+04	 8.285E+02
    5.2250	 1.200E+01	-0.000E+00	 0.000E+00	 6.499E+00	-4.670E-01	 0.000E+00	-1.000E+00	 3.188E+02	 1.017E+01	 9.865E+02	 5.866E-01	-8.970E-02	 0.000E+00	-5.522E+01	 3.133E+03	 3.256E+02	 3.903E+01	 2.747E+02	 2.926E+02	 1.177E+04	 4.080E+01	 5.351E+03	 1.135E+03	 2.651E+03	 9.736E+02	-4.615E+01	-3.526E+03	 5.532E+03	 5.543E+03	 8.117E+02	 1.016E+03	-5.320E+01	-6.945E+03	 1.010E+04	 9.502E+04	 8.236E+02
    5.2300	 1.200E+01	-0.000E+00	 0.000E+00	 6.510E+00	-4.703E-01	 0.000E+00	-1.000E+00	 3.191E+02	 1.017E+01	 9.865E+02	 5.849E-01	-8.985E-02	 0.000E+00	-5.216E+01	 3.139E+03	 3.257E+02	 3.818E+01	 2.739E+02	 3.118E+02	 1.178E+04	 4.082E+01	 5.339E+03	 1.151E+03	 2.647E+03	 9.706E+02	-4.667E+01	-3.524E+03	 5.520E+03	 5.545E+03	 8.067E+02	 1.013E+03	-5.347E+01	-6.943E+03	 1.013E+04	 9.473E+04	 8.185E+02
    5.2350	 1.200E+01	-0.000E+00	 0.000E+00	 6.522E+00	-4.736E-01	 0.000E+00	-1.000E+00	 3.194E+02	 1.017E+01	 9.865E+02	 5.831E-01	-9.001E-02	 0.000E+00	-4.916E+01	 3.143E+03	 3.260E+02	 3.731E+01	 2.731E+02	 3.312E+02	 1.179E+04	 4.086E+01	 5.325E+03	 1.169E+03	 2.641E+03	 9.675E+02	-4.729E+01	-3.522E+03	 5.507E+03	 5.549E+03	 8.000E+02	 1.010E+03	-5.364E+01	-6.941E+03	 1.016E+04	 9.443E+04	 8.118E+02
    5.2400	 1.200E+01	-0.000E+00	 0.000E+00	 6.533E+00	-4.768E-01	 0.000E+00	-1.000E+00	 3.197E+02	 1.017E+01	 9.865E+02	 5.814E-01	-9.017E-02	 0.000E+00	-4.621E+01	 3.148E+03	 3.261E+02	 3.647E+01	 2.723E+02	 3.499E+02	 1.180E+04	 4.051E+01	 5.313E+03	 1.182E+03	 2.636E+03	 9.645E+02	-4.779E+01	-3.520E+03	 5.496E+03	 5.549E+03	 7.967E+02	 1.006E+03	-5.387E+01	-6.939E+03	 1.018E+04	 9.413E+04	 8.084E+02
    5.2450	 1.200E+01	-0.000E+00	 0.000E+00	 6.544E+00	-4.800E-01	 0.000E+00	-1.000E+00	 3.200E+02	 1.017E+01	 9.865E+02	 5.796E-01	-9.032E-02	 0.000E+00	-4.367E+01	 3.152E+03	 3.263E+02	 3.553E+01	 2.715E+02	 3.702E+02	 1.181E+04	 4.097E+01	 5.302E+03	 1.197E+03	 2.631E+03	 9.615E+02	-4.831E+01	-3.518E+03	 5.485E+03	 5.551E+03	 7.936E+02	 1.003E+03	-5.407E+01	-6.937E+03	 1.021E+04	 9.383E+04	 8.052E+02
    5.2500	 1.200E+01	-0.000E+00	 0.000E+00	 6.555E+00	-4.831E-01	 0.000E+00	-1.000E+00	 3.204E+02	 1.017E+01	 9.865E+02	 5.778E-01	-9.047E-02	 0.000E+00	-4.064E+01	 3.157E+03	 3.264E+02	 3.473E+01	 2.708E+02	 3.879E+02	 1.182E+04	 4.123E+01	 5.289E+03	 1.212E+03	 2.625E+03	 9.585E+02	-4.894E+01	-3.516E+03	 5.473E+03	 5.552E+03	 7.889E+02	 9.990E+02	-5.417E+01	-6.935E+03	 1.023E+04	 9.352E+04	 8.005E+02
    5.2550	 1.200E+01	-0.000E+00	 0.000E+00	 6.566E+00	-4.863E-01	 0.000E+00	-1.000E+00	 3.207E+02	 1.017E+01	 9.865E+02	 5.760E-01	-9.061E-02	 0.000E+00	-3.793E+01	 3.162E+03	 3.265E+02	 3.386E+01	 2.700E+02	 4.068E+02	 1.183E+04	 4.127E+01	 5.277E+03	 1.226E+03	 2.619E+03	 9.555E+02	-4.952E+01	-3.514E+03	 5.461E+03	 5.553E+03	 7.852E+02	 9.953E+02	-5.428E+01	-6.932E+03	 1.026E+04	 9.321E+04	 7.967E+02
    5.2600	 1.200E+01	-0.000E+00	 0.000E+00	 6.576E+00	-4.893E-01	 0.000E+00	-1.000E+00	 3.210E+02	 1.017E+01	 9.865E+02	 5.742E-01	-9.076E-02	 0.000E+00	-3.510E+01	 3.166E+03	 3.266E+02	 3.302E+01	 2.693E+02	 4.250E+02	 1.184E+04	 4.152E+01	 5.264E+03	 1.240E+03	 2.612E+03	 9.525E+02	-5.012E+01	-3.512E+03	 5.449E+03	 5.553E+03	 7.814E+02	 9.916E+02	-5.437E+01	-6.930E+03	 1.028E+04	 9.289E+04	 7.929E+02
    5.2650	 1.200E+01	-0.000E+00	 0.000E+00	 6.587E+00	-4.924E-01	 0.000E+00	-1.000E+00	 3.213E+02	 1.017E+01	 9.865E+02	 5.724E-01	-9.090E-02	 0.000E+00	-3.250E+01	 3.171E+03	 3.267E+02	 3.216E+01	 2.685E+02	 4.435E+02	 1.184E+04	 4.171E+01	 5.250E+03	 1.253E+03	 2.604E+03	 9.495E+02	-5.077E+01	-3.510E+03	 5.437E+03	 5.552E+03	 7.776E+02	 9.878E+02	-5.442E+01	-6.928E+03	 1.030E+04	 9.258E+04	 7.891E+02
    5.2700	 1.200E+01	-0.000E+00	 0.000E+00	 6.598E+00	-4.954E-01	 0.000E+00	-1.000E+00	 3.216E+02	 1.017E+01	 9.865E+02	 5.705E-01	-9.104E-02	 0.000E+00	-2.981E+01	 3.176E+03	 3.267E+02	 3.133E+01	 2.678E+02	 4.614E+02	 1.185E+04	 4.185E+01	 5.239E+03	 1.265E+03	 2.597E+03	 9.465E+02	-5.132E+01	-3.508E+03	 5.426E+03	 5.551E+03	 7.747E+02	 9.838E+02	-5.452E+01	-6.926E+03	 1.032E+04	 9.225E+04	 7.861E+02
    5.2750	 1.200E+01	-0.000E+00	 0.000E+00	 6.608E+00	-4.984E-01	 0.000E+00	-1.000E+00	 3.219E+02	 1.017E+01	 9.865E+02	 5.687E-01	-9.118E-02	 0.000E+00	-2.718E+01	 3.180E+03	 3.267E+02	 3.049E+01	 2.670E+02	 4.793E+02	 1.186E+04	 4.202E+01	 5.227E+03	 1.275E+03	 2.590E+03	 9.436E+02	-5.191E+01	-3.506E+03	 5.415E+03	 5.548E+03	 7.746E+02	 9.799E+02	-5.459E+01	-6.924E+03	 1.034E+04	 9.193E+04	 7.860E+02
    5.2800	 1.200E+01	-0.000E+00	 0.000E+00	 6.619E+00	-5.013E-01	 0.000E+00	-1.000E+00	 3.222E+02	 1.017E+01	 9.865E+02	 5.668E-01	-9.131E-02	 0.000E+00	-2.457E+01	 3.185E+03	 3.267E+02	 2.966E+01	 2.663E+02	 4.970E+02	 1.186E+04	 4.213E+01	 5.214E+03	 1.285E+03	 2.581E+03	 9.407E+02	-5.249E+01	-3.504E+03	 5.403E+03	 5.546E+03	 7.719E+02	 9.758E+02	-5.467E+01	-6.922E+03	 1.036E+04	 9.160E+04	 7.833E+02
    5.2850	 1.200E+01	-0.000E+00	 0.000E+00	 6.629E+00	-5.043E-01	 0.000E+00	-1.000E+00	 3.225E+02	 1.017E+01	 9.865E+02	 5.649E-01	-9.144E-02	 0.000E+00	-2.198E+01	 3.189E+03	 3.266E+02	 2.884E+01	 2.655E+02	 5.145E+02	 1.187E+04	 4.222E+01	 5.202E+03	 1.295E+03	 2.573E+03	 9.378E+02	-5.306E+01	-3.502E+03	 5.392E+03	 5.542E+03	 7.704E+02	 9.717E+02	-5.476E+01	-6.920E+03	 1.038E+04	 9.126E+04	 7.817E+02
    5.2900	 1.200E+01	-0.000E+00	 0.000E+00	 6.639E+00	-5.072E-01	 0.000E+00	-1.000E+00	 3.228E+02	 1.017E+01	 9.865E+02	 5.630E-01	-9.157E-02	 0.000E+00	-1.941E+01	 3.193E+03	 3.265E+02	 2.801E+01	 2.648E+02	 5.319E+02	 1.187E+04	 4.228E+01	 5.190E+03	 1.303E+03	 2.563E+03	 9.349E+02	-5.361E+01	-3.500E+03	 5.380E+03	 5.538E+03	 7.686E+02	 9.675E+02	-5.486E+01	-6.917E+03	 1.040E+04	 9.093E+04	 7.798E+02
    5.2950	 1.200E+01	-0.000E+00	 0.000E+00	 6.649E+00	-5.100E-01	 0.000E+00	-1.000E+00	 3.231E+02	 1.017E+01	 9.865E+02	 5.611E-01	-9.169E-02	 0.000E+00	-1.681E+01	 3.198E+03	 3.264E+02	 2.721E+01	 2.641E+02	 5.489E+02	 1.187E+04	 4.239E+01	 5.178E+03	 1.310E+03	 2.554E+03	 9.320E+02	-5.414E+01	-3.498E+03	 5.369E+03	 5.532E+03	 7.687E+02	 9.632E+02	-5.499E+01	-6.915E+03	 1.042E+04	 9.058E+04	 7.799E+02
    5.3000	 1.200E+01	-0.000E+00	 0.000E+00	 6.659E+00	-5.129E-01	 0.000E+00	-1.000E+00	 3.234E+02	 1.017E+01	 9.865E+02	 5.591E-01	-9.181E-02	 0.000E+00	-1.431E+01	 3.201E+03	 3.264E+02	 2.637E+01	 2.634E+02	 5.668E+02	 1.188E+04	 4.256E+01	 5.167E+03	 1.321E+03	 2.544E+03	 9.290E+02	-5.462E+01	-3.496E+03	 5.359E+03	 5.529E+03	 7.653E+02	 9.590E+02	-5.515E+01	-6.913E+03	 1.044E+04	 9.024E+04	 7.765E+02
    5.3050	 1.200E+01	-0.000E+00	 0.000E+00	 6.669E+00	-5.157E-01	 0.000E+00	-1.000E+00	 3.237E+02	 1.017E+01	 9.865E+02	 5.572E-01	-9.193E-02	 0.000E+00	-1.166E+01	 3.207E+03	 3.260E+02	 2.561E+01	 2.627E+02	 5.826E+02	 1.187E+04	 4.240E+01	 5.154E+03	 1.323E+03	 2.533E+03	 9.263E+02	-5.514E+01	-3.494E+03	 5.347E+03	 5.519E+03	 7.674E+02	 9.545E+02	-5.530E+01	-6.911E+03	 1.046E+04	 8.989E+04	 7.785E+02
    5.3100	 1.200E+01	-0.000E+00	 0.000E+00	 6.679E+00	-5.184E-01	 0.000E+00	-1.000E+00	 3.240E+02	 1.017E+01	 9.865E+02	 5.552E-01	-9.204E-02	 0.000E+00	-9.122E+00	 3.210E+03	 3.259E+02	 2.481E+01	 2.620E+02	 5.995E+02	 1.187E+04	 4.243E+01	 5.143E+03	 1.330E+03	 2.522E+03	 9.235E+02	-5.560E+01	-3.492E+03	 5.337E+03	 5.512E+03	 7.663E+02	 9.501E+02	-5.551E+01	-6.909E+03	 1.048E+04	 8.955E+04	 7.774E+02
    5.3150	 1.200E+01	-0.000E+00	 0.000E+00	 6.688E+00	-5.212E-01	 0.000E+00	-1.000E+00	 3.243E+02	 1.017E+01	 9.865E+02	 5.533E-01	-9.215E-02	 0.000E+00	-6.537E+00	 3.214E+03	 3.257E+02	 2.403E+01	 2.613E+02	 6.159E+02	 1.187E+04	 4.245E+01	 5.132E+03	 1.334E+03	 2.511E+03	 9.206E+02	-5.602E+01	-3.490E+03	 5.326E+03	 5.504E+03	 7.671E+02	 9.456E+02	-5.576E+01	-6.907E+03	 1.051E+04	 8.919E+04	 7.781E+02
    5.3200	 1.200E+01	-0.000E+00	 0.000E+00	 6.698E+00	-5.239E-01	 0.000E+00	-1.000E+00	 3.246E+02	 1.017E+01	 9.865E+02	 5.513E-01	-9.226E-02	 0.000E+00	-2.961E+00	 3.219E+03	 3.254E+02	 2.341E+01	 2.606E+02	 6.293E+02	 1.187E+04	 4.298E+01	 5.117E+03	 1.336E+03	 2.499E+03	 9.178E+02	-5.654E+01	-3.488E+03	 5.313E+03	 5.494E+03	 7.677E+02	 9.411E+02	-5.595E+01	-6.905E+03	 1.053E+04	 8.884E+04	 7.787E+02
    5.3250	 1.200E+01	-0.000E+00	 0.000E+00	 6.707E+00	-5.266E-01	 0.000E+00	-1.000E+00	 3.249E+02	 1.017E+01	 9.865E+02	 5.493E-01	-9.236E-02	 0.000E+00	-1.290E+00	 3.223E+03	 3.251E+02	 2.251E+01	 2.599E+02	 6.480E+02	 1.187E+04	 4.228E+01	 5.109E+03	 1.339E+03	 2.487E+03	 9.150E+02	-5.680E+01	-3.486E+03	 5.305E+03	 5.483E+03	 7.683E+02	 9.365E+02	-5.634E+01	-6.903E+03	 1.055E+04	 8.848E+04	 7.793E+02
    5.3300	 1.200E+01	-0.000E+00	 0.000E+00	 6.716E+00	-5.293E-01	 0.000E+00	-1.000E+00	 3.252E+02	 1.017E+01	 9.865E+02	 5.473E-01	-9.246E-02	 0.000E+00	 2.328E+00	 3.228E+03	 3.246E+02	 2.192E+01	 2.593E+02	 6.611E+02	 1.186E+04	 4.317E+01	 5.095E+03	 1.339E+03	 2.474E+03	 9.123E+02	-5.724E+01	-3.484E+03	 5.292E+03	 5.470E+03	 7.707E+02	 9.319E+02	-5.662E+01	-6.901E+03	 1.057E+04	 8.812E+04	 7.816E+02
    5.3350	 1.200E+01	-0.000E+00	 0.000E+00	 6.725E+00	-5.320E-01	 0.000E+00	-1.000E+00	 3.255E+02	 1.017E+01	 9.865E+02	 5.453E-01	-9.256E-02	 0.000E+00	 4.345E+00	 3.231E+03	 3.243E+02	 2.108E+01	 2.586E+02	 6.784E+02	 1.186E+04	 4.232E+01	 5.086E+03	 1.340E+03	 2.461E+03	 9.095E+02	-5.748E+01	-3.482E+03	 5.283E+03	 5.458E+03	 7.714E+02	 9.273E+02	-5.706E+01	-6.899E+03	 1.060E+04	 8.776E+04	 7.822E+02
    5.3400	 1.200E+01	-0.000E+00	 0.000E+00	 6.733E+00	-5.347E-01	 0.000E+00	-1.000E+00	 3.258E+02	 1.017E+01	 9.865E+02	 5.432E-01	-9.265E-02	 0.000E+00	 7.220E+00	 3.236E+03	 3.239E+02	 2.038E+01	 2.580E+02	 6.934E+02	 1.185E+04	 4.251E+01	 5.075E+03	 1.339E+03	 2.447E+03	 9.067E+02	-5.776E+01	-3.480E+03	 5.273E+03	 5.444E+03	 7.728E+02	 9.226E+02	-5.749E+01	-6.897E+03	 1.062E+04	 8.740E+04	 7.836E+02
    5.3450	 1.200E+01	-0.000E+00	 0.000E+00	 6.742E+00	-5.373E-01	 0.000E+00	-1.000E+00	 3.262E+02	 1.017E+01	 9.865E+02	 5.412E-01	-9.273E-02	 0.000E+00	 1.073E+01	 3.239E+03	 3.235E+02	 1.970E+01	 2.573E+02	 7.071E+02	 1.185E+04	 4.261E+01	 5.063E+03	 1.339E+03	 2.433E+03	 9.039E+02	-5.806E+01	-3.478E+03	 5.262E+03	 5.430E+03	 7.737E+02	 9.180E+02	-5.792E+01	-6.895E+03	 1.065E+04	 8.704E+04	 7.844E+02